 Entering Gaussian System, Link 0=g16
 Initial command:
 /opt/shared/g16/l1.exe "/scratch/19603/Gau-17206.inp" -scrdir="/scratch/19603/"
 Entering Link 1 = /opt/shared/g16/l1.exe PID=     17207.
  
 Copyright (c) 1988-2017, Gaussian, Inc.  All Rights Reserved.
  
 This is part of the Gaussian(R) 16 program.  It is based on
 the Gaussian(R) 09 system (copyright 2009, Gaussian, Inc.),
 the Gaussian(R) 03 system (copyright 2003, Gaussian, Inc.),
 the Gaussian(R) 98 system (copyright 1998, Gaussian, Inc.),
 the Gaussian(R) 94 system (copyright 1995, Gaussian, Inc.),
 the Gaussian 92(TM) system (copyright 1992, Gaussian, Inc.),
 the Gaussian 90(TM) system (copyright 1990, Gaussian, Inc.),
 the Gaussian 88(TM) system (copyright 1988, Gaussian, Inc.),
 the Gaussian 86(TM) system (copyright 1986, Carnegie Mellon
 University), and the Gaussian 82(TM) system (copyright 1983,
 Carnegie Mellon University). Gaussian is a federally registered
 trademark of Gaussian, Inc.
  
 This software contains proprietary and confidential information,
 including trade secrets, belonging to Gaussian, Inc.
  
 This software is provided under written license and may be
 used, copied, transmitted, or stored only in accord with that
 written license.
  
 The following legend is applicable only to US Government
 contracts under FAR:
  
                    RESTRICTED RIGHTS LEGEND
  
 Use, reproduction and disclosure by the US Government is
 subject to restrictions as set forth in subparagraphs (a)
 and (c) of the Commercial Computer Software - Restricted
 Rights clause in FAR 52.227-19.
  
 Gaussian, Inc.
 340 Quinnipiac St., Bldg. 40, Wallingford CT 06492
  
  
 ---------------------------------------------------------------
 Warning -- This program may not be used in any manner that
 competes with the business of Gaussian, Inc. or will provide
 assistance to any competitor of Gaussian, Inc.  The licensee
 of this program is prohibited from giving any competitor of
 Gaussian, Inc. access to this program.  By using this program,
 the user acknowledges that Gaussian, Inc. is engaged in the
 business of creating and licensing software in the field of
 computational chemistry and represents and warrants to the
 licensee that it is not a competitor of Gaussian, Inc. and that
 it will not use this program in any manner prohibited above.
 ---------------------------------------------------------------
  

 Cite this work as:
 Gaussian 16, Revision B.01,
 M. J. Frisch, G. W. Trucks, H. B. Schlegel, G. E. Scuseria, 
 M. A. Robb, J. R. Cheeseman, G. Scalmani, V. Barone, 
 G. A. Petersson, H. Nakatsuji, X. Li, M. Caricato, A. V. Marenich, 
 J. Bloino, B. G. Janesko, R. Gomperts, B. Mennucci, H. P. Hratchian, 
 J. V. Ortiz, A. F. Izmaylov, J. L. Sonnenberg, D. Williams-Young, 
 F. Ding, F. Lipparini, F. Egidi, J. Goings, B. Peng, A. Petrone, 
 T. Henderson, D. Ranasinghe, V. G. Zakrzewski, J. Gao, N. Rega, 
 G. Zheng, W. Liang, M. Hada, M. Ehara, K. Toyota, R. Fukuda, 
 J. Hasegawa, M. Ishida, T. Nakajima, Y. Honda, O. Kitao, H. Nakai, 
 T. Vreven, K. Throssell, J. A. Montgomery, Jr., J. E. Peralta, 
 F. Ogliaro, M. J. Bearpark, J. J. Heyd, E. N. Brothers, K. N. Kudin, 
 V. N. Staroverov, T. A. Keith, R. Kobayashi, J. Normand, 
 K. Raghavachari, A. P. Rendell, J. C. Burant, S. S. Iyengar, 
 J. Tomasi, M. Cossi, J. M. Millam, M. Klene, C. Adamo, R. Cammi, 
 J. W. Ochterski, R. L. Martin, K. Morokuma, O. Farkas, 
 J. B. Foresman, and D. J. Fox, Gaussian, Inc., Wallingford CT, 2016.
 
 ******************************************
 Gaussian 16:  ES64L-G16RevB.01 20-Dec-2017
                23-Jan-2019 
 ******************************************
 %NProcShared=4
 Will use up to    4 processors via shared memory.
 %Mem=2GB
 ---------------------------------------
 #P PBEPBE/6-31+G* pop=NBORead scf=tight
 ---------------------------------------
 1/38=1,172=1/1;
 2/12=2,17=6,18=5,40=1/2;
 3/5=1,6=6,7=11,11=2,25=1,30=1,74=1009/1,2,3;
 4//1;
 5/5=2,32=2,38=5/2;
 6/7=2,8=2,9=2,10=2,28=1,40=2/1,7;
 99/5=1,9=1/99;
 Leave Link    1 at Wed Jan 23 22:24:23 2019, MaxMem=   268435456 cpu:               0.2 elap:               0.1
 (Enter /opt/shared/g16/l101.exe)
 ----------------------------------------------------------
 Single Point computation for reaction coordinate: -3.53557
 ----------------------------------------------------------
 Symbolic Z-matrix:
 Charge = -1 Multiplicity = 1
 6                     0.        0.37998   0.00003 
 1                     0.        0.04936   1.04334 
 1                     0.90354   0.04936  -0.52164 
 1                    -0.90354   0.04936  -0.52164 
 9                     0.       -2.10539  -0.00003 
 9                     0.        1.8584    0.00001 
 
 ITRead=  0  0  0  0  0  0
 MicOpt= -1 -1 -1 -1 -1 -1
 NAtoms=      6 NQM=        6 NQMF=       0 NMMI=      0 NMMIF=      0
                NMic=       0 NMicF=      0.
                    Isotopes and Nuclear Properties:
 (Nuclear quadrupole moments (NQMom) in fm**2, nuclear magnetic moments (NMagM)
  in nuclear magnetons)

  Atom         1           2           3           4           5           6
 IAtWgt=          12           1           1           1          19          19
 AtmWgt=  12.0000000   1.0078250   1.0078250   1.0078250  18.9984032  18.9984032
 NucSpn=           0           1           1           1           1           1
 AtZEff=  -0.0000000  -0.0000000  -0.0000000  -0.0000000  -0.0000000  -0.0000000
 NQMom=    0.0000000   0.0000000   0.0000000   0.0000000   0.0000000   0.0000000
 NMagM=    0.0000000   2.7928460   2.7928460   2.7928460   2.6288670   2.6288670
 AtZNuc=   6.0000000   1.0000000   1.0000000   1.0000000   9.0000000   9.0000000
 Leave Link  101 at Wed Jan 23 22:24:23 2019, MaxMem=   268435456 cpu:               0.3 elap:               0.1
 (Enter /opt/shared/g16/l202.exe)
                          Input orientation:                          
 ---------------------------------------------------------------------
 Center     Atomic      Atomic             Coordinates (Angstroms)
 Number     Number       Type             X           Y           Z
 ---------------------------------------------------------------------
      1          6           0        0.000000    0.379984    0.000025
      2          1           0        0.000000    0.049362    1.043345
      3          1           0        0.903544    0.049363   -0.521637
      4          1           0       -0.903544    0.049363   -0.521637
      5          9           0        0.000000   -2.105390   -0.000033
      6          9           0        0.000000    1.858398    0.000013
 ---------------------------------------------------------------------
                    Distance matrix (angstroms):
                    1          2          3          4          5
     1  C    0.000000
     2  H    1.094453   0.000000
     3  H    1.094456   1.807086   0.000000
     4  H    1.094456   1.807086   1.807088   0.000000
     5  F    2.485374   2.394075   2.394039   2.394039   0.000000
     6  F    1.478414   2.088337   2.088329   2.088329   3.963788
                    6
     6  F    0.000000
 This structure is nearly, but not quite of a higher symmetry.
 Consider Symm=Loose if the higher symmetry is desired.
 Stoichiometry    CH3F2(1-)
 Framework group  CS[SG(CHF2),X(H2)]
 Deg. of freedom     8
 Full point group                 CS      NOp   2
 Largest Abelian subgroup         CS      NOp   2
 Largest concise Abelian subgroup CS      NOp   2
                         Standard orientation:                         
 ---------------------------------------------------------------------
 Center     Atomic      Atomic             Coordinates (Angstroms)
 Number     Number       Type             X           Y           Z
 ---------------------------------------------------------------------
      1          6           0        0.000000    0.372389   -0.000000
      2          1           0       -1.043341    0.041833   -0.000000
      3          1           0        0.521641    0.041735    0.903544
      4          1           0        0.521641    0.041735   -0.903544
      5          9           0       -0.000099   -2.112985   -0.000000
      6          9           0        0.000105    1.850803    0.000000
 ---------------------------------------------------------------------
 Rotational constants (GHZ):         153.5585626           3.2985414           3.2985413
 Leave Link  202 at Wed Jan 23 22:24:23 2019, MaxMem=   268435456 cpu:               0.1 elap:               0.0
 (Enter /opt/shared/g16/l301.exe)
 Standard basis: 6-31+G(d) (6D, 7F)
 Ernie: Thresh=  0.10000D-02 Tol=  0.10000D-05 Strict=F.
 There are    46 symmetry adapted cartesian basis functions of A'  symmetry.
 There are    17 symmetry adapted cartesian basis functions of A"  symmetry.
 There are    46 symmetry adapted basis functions of A'  symmetry.
 There are    17 symmetry adapted basis functions of A"  symmetry.
    63 basis functions,   108 primitive gaussians,    63 cartesian basis functions
    14 alpha electrons       14 beta electrons
       nuclear repulsion energy        64.0311564571 Hartrees.
 IExCor= 1009 DFT=T Ex=PBE Corr=PBE ExCW=0 ScaHFX=  0.000000
 ScaDFX=  1.000000  1.000000  1.000000  1.000000 ScalE2=  1.000000  1.000000
 IRadAn=      5 IRanWt=     -1 IRanGd=            0 ICorTp=0 IEmpDi=  4
 NAtoms=    6 NActive=    6 NUniq=    5 SFac= 1.44D+00 NAtFMM=   60 NAOKFM=F Big=F
 Integral buffers will be    131072 words long.
 Raffenetti 2 integral format.
 Two-electron integral symmetry is turned on.
 Leave Link  301 at Wed Jan 23 22:24:23 2019, MaxMem=   268435456 cpu:               0.2 elap:               0.1
 (Enter /opt/shared/g16/l302.exe)
 NPDir=0 NMtPBC=     1 NCelOv=     1 NCel=       1 NClECP=     1 NCelD=      1
         NCelK=      1 NCelE2=     1 NClLst=     1 CellRange=     0.0.
 One-electron integrals computed using PRISM.
 One-electron integral symmetry used in STVInt
 NBasis=    63 RedAO= T EigKep=  3.73D-03  NBF=    46    17
 NBsUse=    63 1.00D-06 EigRej= -1.00D+00 NBFU=    46    17
 Precomputing XC quadrature grid using
 IXCGrd= 4 IRadAn=           5 IRanWt=          -1 IRanGd=           0 AccXCQ= 0.00D+00.
 Generated NRdTot=       0 NPtTot=           0 NUsed=           0 NTot=          32
 NSgBfM=    63    63    63    63    63 MxSgAt=     6 MxSgA2=     6.
 Leave Link  302 at Wed Jan 23 22:24:23 2019, MaxMem=   268435456 cpu:               0.5 elap:               0.1
 (Enter /opt/shared/g16/l303.exe)
 DipDrv:  MaxL=1.
 Leave Link  303 at Wed Jan 23 22:24:23 2019, MaxMem=   268435456 cpu:               0.1 elap:               0.0
 (Enter /opt/shared/g16/l401.exe)
 ExpMin= 4.38D-02 ExpMax= 7.00D+03 ExpMxC= 1.05D+03 IAcc=3 IRadAn=         5 AccDes= 0.00D+00
 Harris functional with IExCor= 1009 and IRadAn=       5 diagonalized for initial guess.
 HarFok:  IExCor= 1009 AccDes= 0.00D+00 IRadAn=         5 IDoV= 1 UseB2=F ITyADJ=14
 ICtDFT=  3500011 ScaDFX=  1.000000  1.000000  1.000000  1.000000
 FoFCou: FMM=F IPFlag=           0 FMFlag=      100000 FMFlg1=           0
         NFxFlg=           0 DoJE=T BraDBF=F KetDBF=T FulRan=T
         wScrn=  0.000000 ICntrl=       500 IOpCl=  0 I1Cent=   200000004 NGrid=           0
         NMat0=    1 NMatS0=      1 NMatT0=    0 NMatD0=    1 NMtDS0=    0 NMtDT0=    0
 Petite list used in FoFCou.
 Harris En= -239.599399713507    
 JPrj=0 DoOrth=F DoCkMO=F.
 Initial guess orbital symmetries:
       Occupied  (A') (A') (A') (A') (A') (A') (A') (A') (A") (A")
                 (A') (A') (A') (A")
       Virtual   (A') (A') (A") (A') (A') (A") (A') (A') (A') (A")
                 (A') (A') (A") (A') (A') (A') (A") (A') (A') (A')
                 (A") (A') (A') (A") (A') (A") (A') (A') (A") (A')
                 (A') (A') (A") (A') (A") (A') (A") (A') (A') (A')
                 (A') (A') (A") (A") (A') (A') (A') (A') (A')
 The electronic state of the initial guess is 1-A'.
 Leave Link  401 at Wed Jan 23 22:24:23 2019, MaxMem=   268435456 cpu:               1.0 elap:               0.3
 (Enter /opt/shared/g16/l502.exe)
 Keep J ints in memory in symmetry-blocked form, NReq=5579420.
 FoFCou: FMM=F IPFlag=           0 FMFlag=           0 FMFlg1=           0
         NFxFlg=           0 DoJE=F BraDBF=F KetDBF=F FulRan=T
         wScrn=  0.000000 ICntrl=       600 IOpCl=  0 I1Cent=           0 NGrid=           0
         NMat0=    1 NMatS0=   2016 NMatT0=    0 NMatD0=    1 NMtDS0=    0 NMtDT0=    0
 Petite list used in FoFCou.
 Closed shell SCF:
 Using DIIS extrapolation, IDIIS=  1040.
 NGot=   268435456 LenX=   267353200 LenY=   267348790
 Requested convergence on RMS density matrix=1.00D-08 within 128 cycles.
 Requested convergence on MAX density matrix=1.00D-06.
 Requested convergence on             energy=1.00D-06.
 No special actions if energy rises.

 Cycle   1  Pass 1  IDiag  1:
 E= -239.236704504352    
 DIIS: error= 6.32D-02 at cycle   1 NSaved=   1.
 NSaved= 1 IEnMin= 1 EnMin= -239.236704504352     IErMin= 1 ErrMin= 6.32D-02
 ErrMax= 6.32D-02  0.00D+00 EMaxC= 1.00D-01 BMatC= 1.52D-01 BMatP= 1.52D-01
 IDIUse=3 WtCom= 3.68D-01 WtEn= 6.32D-01
 Coeff-Com:  0.100D+01
 Coeff-En:   0.100D+01
 Coeff:      0.100D+01
 Gap=    -0.174 Goal=   None    Shift=    0.000
 GapD=   -0.174 DampG=0.250 DampE=0.500 DampFc=0.2500 IDamp=-1.
 Damping current iteration by 2.50D-01
 RMSDP=9.49D-02 MaxDP=2.77D+00              OVMax= 9.90D-01

 Cycle   2  Pass 1  IDiag  1:
 E= -238.758091945634     Delta-E=        0.478612558718 Rises=F Damp=T
 DIIS: error= 4.71D-02 at cycle   2 NSaved=   2.
 NSaved= 2 IEnMin= 1 EnMin= -239.236704504352     IErMin= 2 ErrMin= 4.71D-02
 ErrMax= 4.71D-02  0.00D+00 EMaxC= 1.00D-01 BMatC= 9.28D-02 BMatP= 1.52D-01
 IDIUse=3 WtCom= 5.29D-01 WtEn= 4.71D-01
 Coeff-Com:  0.428D+00 0.572D+00
 Coeff-En:   0.831D+00 0.169D+00
 Coeff:      0.618D+00 0.382D+00
 Gap=    -0.151 Goal=   None    Shift=    0.000
 RMSDP=2.40D-02 MaxDP=6.88D-01 DE= 4.79D-01 OVMax= 9.82D-01

 Cycle   3  Pass 1  IDiag  1:
 E= -239.336025880159     Delta-E=       -0.577933934525 Rises=F Damp=F
 DIIS: error= 2.48D-02 at cycle   3 NSaved=   3.
 NSaved= 3 IEnMin= 3 EnMin= -239.336025880159     IErMin= 3 ErrMin= 2.48D-02
 ErrMax= 2.48D-02  0.00D+00 EMaxC= 1.00D-01 BMatC= 4.01D-02 BMatP= 9.28D-02
 IDIUse=3 WtCom= 7.52D-01 WtEn= 2.48D-01
 Coeff-Com:  0.250D+00 0.362D+00 0.387D+00
 Coeff-En:   0.735D-01 0.000D+00 0.926D+00
 Coeff:      0.206D+00 0.273D+00 0.521D+00
 Gap=     0.228 Goal=   None    Shift=    0.000
 RMSDP=3.52D-03 MaxDP=5.51D-02 DE=-5.78D-01 OVMax= 6.54D-02

 Cycle   4  Pass 1  IDiag  1:
 E= -239.354286030525     Delta-E=       -0.018260150366 Rises=F Damp=F
 DIIS: error= 2.99D-02 at cycle   4 NSaved=   4.
 NSaved= 4 IEnMin= 4 EnMin= -239.354286030525     IErMin= 3 ErrMin= 2.48D-02
 ErrMax= 2.99D-02  0.00D+00 EMaxC= 1.00D-01 BMatC= 2.87D-02 BMatP= 4.01D-02
 IDIUse=3 WtCom= 7.01D-01 WtEn= 2.99D-01
 Coeff-Com: -0.588D-01 0.249D+00 0.261D+00 0.548D+00
 Coeff-En:   0.000D+00 0.000D+00 0.281D+00 0.719D+00
 Coeff:     -0.412D-01 0.175D+00 0.267D+00 0.600D+00
 Gap=     0.153 Goal=   None    Shift=    0.000
 RMSDP=1.58D-03 MaxDP=2.09D-02 DE=-1.83D-02 OVMax= 3.66D-02

 Cycle   5  Pass 1  IDiag  1:
 E= -239.376118562718     Delta-E=       -0.021832532193 Rises=F Damp=F
 DIIS: error= 6.11D-03 at cycle   5 NSaved=   5.
 NSaved= 5 IEnMin= 5 EnMin= -239.376118562718     IErMin= 5 ErrMin= 6.11D-03
 ErrMax= 6.11D-03  0.00D+00 EMaxC= 1.00D-01 BMatC= 2.24D-03 BMatP= 2.87D-02
 IDIUse=3 WtCom= 9.39D-01 WtEn= 6.11D-02
 Coeff-Com: -0.115D+00 0.115D+00 0.702D-01 0.330D+00 0.600D+00
 Coeff-En:   0.000D+00 0.000D+00 0.000D+00 0.000D+00 0.100D+01
 Coeff:     -0.108D+00 0.108D+00 0.659D-01 0.310D+00 0.624D+00
 Gap=     0.151 Goal=   None    Shift=    0.000
 RMSDP=5.19D-04 MaxDP=8.88D-03 DE=-2.18D-02 OVMax= 1.52D-02

 Cycle   6  Pass 1  IDiag  1:
 E= -239.374040154895     Delta-E=        0.002078407824 Rises=F Damp=F
 DIIS: error= 1.31D-02 at cycle   6 NSaved=   6.
 NSaved= 6 IEnMin= 5 EnMin= -239.376118562718     IErMin= 5 ErrMin= 6.11D-03
 ErrMax= 1.31D-02  0.00D+00 EMaxC= 1.00D-01 BMatC= 5.74D-03 BMatP= 2.24D-03
 IDIUse=2 WtCom= 0.00D+00 WtEn= 1.00D+00
 Rare condition: small coef for last iteration:  0.000D+00
 Coeff-En:   0.000D+00 0.000D+00 0.000D+00 0.000D+00 0.000D+00 0.100D+01
 Coeff:      0.000D+00 0.000D+00 0.000D+00 0.000D+00 0.000D+00 0.100D+01
 Gap=     0.058 Goal=   None    Shift=    0.000
 RMSDP=5.30D-03 MaxDP=6.58D-02 DE= 2.08D-03 OVMax= 1.53D-01

 Cycle   7  Pass 1  IDiag  1:
 E= -239.321306389017     Delta-E=        0.052733765877 Rises=F Damp=F
 DIIS: error= 4.61D-02 at cycle   7 NSaved=   7.
 NSaved= 7 IEnMin= 5 EnMin= -239.376118562718     IErMin= 5 ErrMin= 6.11D-03
 ErrMax= 4.61D-02  0.00D+00 EMaxC= 1.00D-01 BMatC= 7.66D-02 BMatP= 2.24D-03
 IDIUse=2 WtCom= 0.00D+00 WtEn= 1.00D+00
 EnCoef did     7 forward-backward iterations
 Coeff-En:   0.000D+00 0.000D+00 0.000D+00 0.000D+00 0.956D+00 0.236D-02
 Coeff-En:   0.416D-01
 Coeff:      0.000D+00 0.000D+00 0.000D+00 0.000D+00 0.956D+00 0.236D-02
 Coeff:      0.416D-01
 Gap=     0.087 Goal=   None    Shift=    0.000
 RMSDP=2.80D-03 MaxDP=3.53D-02 DE= 5.27D-02 OVMax= 7.36D-02

 Cycle   8  Pass 1  IDiag  1:
 E= -239.368181384553     Delta-E=       -0.046874995536 Rises=F Damp=F
 DIIS: error= 1.37D-02 at cycle   8 NSaved=   8.
 NSaved= 8 IEnMin= 5 EnMin= -239.376118562718     IErMin= 5 ErrMin= 6.11D-03
 ErrMax= 1.37D-02  0.00D+00 EMaxC= 1.00D-01 BMatC= 1.42D-02 BMatP= 2.24D-03
 IDIUse=2 WtCom= 0.00D+00 WtEn= 1.00D+00
 EnCoef did   100 forward-backward iterations
 Coeff-En:   0.000D+00 0.000D+00 0.000D+00 0.000D+00 0.713D+00 0.225D-01
 Coeff-En:   0.000D+00 0.265D+00
 Coeff:      0.000D+00 0.000D+00 0.000D+00 0.000D+00 0.713D+00 0.225D-01
 Coeff:      0.000D+00 0.265D+00
 Gap=     0.108 Goal=   None    Shift=    0.000
 RMSDP=1.24D-03 MaxDP=1.52D-02 DE=-4.69D-02 OVMax= 3.54D-02

 Cycle   9  Pass 1  IDiag  1:
 E= -239.378579874114     Delta-E=       -0.010398489561 Rises=F Damp=F
 DIIS: error= 3.13D-03 at cycle   9 NSaved=   9.
 NSaved= 9 IEnMin= 9 EnMin= -239.378579874114     IErMin= 9 ErrMin= 3.13D-03
 ErrMax= 3.13D-03  0.00D+00 EMaxC= 1.00D-01 BMatC= 4.59D-04 BMatP= 2.24D-03
 IDIUse=3 WtCom= 9.69D-01 WtEn= 3.13D-02
 EnCoef did   100 forward-backward iterations
 Coeff-Com: -0.180D-02-0.313D-02-0.240D-01-0.137D-01 0.149D+00 0.130D+00
 Coeff-Com:  0.930D-02-0.658D-01 0.820D+00
 Coeff-En:   0.000D+00 0.000D+00 0.000D+00 0.000D+00 0.133D+00 0.354D-02
 Coeff-En:   0.000D+00 0.000D+00 0.863D+00
 Coeff:     -0.174D-02-0.304D-02-0.233D-01-0.133D-01 0.148D+00 0.126D+00
 Coeff:      0.901D-02-0.638D-01 0.822D+00
 Gap=     0.114 Goal=   None    Shift=    0.000
 RMSDP=3.05D-04 MaxDP=3.62D-03 DE=-1.04D-02 OVMax= 8.44D-03

 Cycle  10  Pass 1  IDiag  1:
 E= -239.378980297354     Delta-E=       -0.000400423240 Rises=F Damp=F
 DIIS: error= 5.67D-04 at cycle  10 NSaved=  10.
 NSaved=10 IEnMin=10 EnMin= -239.378980297354     IErMin=10 ErrMin= 5.67D-04
 ErrMax= 5.67D-04  0.00D+00 EMaxC= 1.00D-01 BMatC= 1.03D-05 BMatP= 4.59D-04
 IDIUse=3 WtCom= 9.94D-01 WtEn= 5.67D-03
 Coeff-Com:  0.488D-03 0.222D-03-0.882D-03 0.498D-02 0.162D-01 0.171D-01
 Coeff-Com: -0.492D-02-0.743D-02 0.102D+00 0.872D+00
 Coeff-En:   0.000D+00 0.000D+00 0.000D+00 0.000D+00 0.000D+00 0.000D+00
 Coeff-En:   0.000D+00 0.000D+00 0.000D+00 0.100D+01
 Coeff:      0.485D-03 0.220D-03-0.877D-03 0.495D-02 0.161D-01 0.170D-01
 Coeff:     -0.490D-02-0.739D-02 0.101D+00 0.873D+00
 Gap=     0.116 Goal=   None    Shift=    0.000
 RMSDP=6.06D-05 MaxDP=7.26D-04 DE=-4.00D-04 OVMax= 1.76D-03

 Cycle  11  Pass 1  IDiag  1:
 E= -239.378989296750     Delta-E=       -0.000008999397 Rises=F Damp=F
 DIIS: error= 5.09D-05 at cycle  11 NSaved=  11.
 NSaved=11 IEnMin=11 EnMin= -239.378989296750     IErMin=11 ErrMin= 5.09D-05
 ErrMax= 5.09D-05  0.00D+00 EMaxC= 1.00D-01 BMatC= 1.04D-07 BMatP= 1.03D-05
 IDIUse=1 WtCom= 1.00D+00 WtEn= 0.00D+00
 Coeff-Com:  0.734D-04 0.297D-04-0.250D-04 0.913D-03 0.174D-02 0.651D-03
 Coeff-Com: -0.686D-03 0.330D-03 0.817D-02 0.164D+00 0.824D+00
 Coeff:      0.734D-04 0.297D-04-0.250D-04 0.913D-03 0.174D-02 0.651D-03
 Coeff:     -0.686D-03 0.330D-03 0.817D-02 0.164D+00 0.824D+00
 Gap=     0.116 Goal=   None    Shift=    0.000
 RMSDP=4.78D-06 MaxDP=5.58D-05 DE=-9.00D-06 OVMax= 1.46D-04

 Cycle  12  Pass 1  IDiag  1:
 E= -239.378989384213     Delta-E=       -0.000000087463 Rises=F Damp=F
 DIIS: error= 5.56D-06 at cycle  12 NSaved=  12.
 NSaved=12 IEnMin=12 EnMin= -239.378989384213     IErMin=12 ErrMin= 5.56D-06
 ErrMax= 5.56D-06  0.00D+00 EMaxC= 1.00D-01 BMatC= 1.01D-09 BMatP= 1.04D-07
 IDIUse=1 WtCom= 1.00D+00 WtEn= 0.00D+00
 Coeff-Com:  0.872D-05 0.252D-06-0.626D-05 0.442D-04 0.119D-03-0.178D-03
 Coeff-Com: -0.428D-04 0.164D-03 0.440D-03 0.181D-01 0.137D+00 0.845D+00
 Coeff:      0.872D-05 0.252D-06-0.626D-05 0.442D-04 0.119D-03-0.178D-03
 Coeff:     -0.428D-04 0.164D-03 0.440D-03 0.181D-01 0.137D+00 0.845D+00
 Gap=     0.116 Goal=   None    Shift=    0.000
 RMSDP=5.13D-07 MaxDP=5.97D-06 DE=-8.75D-08 OVMax= 1.47D-05

 Cycle  13  Pass 1  IDiag  1:
 E= -239.378989385094     Delta-E=       -0.000000000881 Rises=F Damp=F
 DIIS: error= 9.14D-08 at cycle  13 NSaved=  13.
 NSaved=13 IEnMin=13 EnMin= -239.378989385094     IErMin=13 ErrMin= 9.14D-08
 ErrMax= 9.14D-08  0.00D+00 EMaxC= 1.00D-01 BMatC= 3.18D-13 BMatP= 1.01D-09
 IDIUse=1 WtCom= 1.00D+00 WtEn= 0.00D+00
 Coeff-Com: -0.329D-06-0.240D-06-0.200D-05-0.316D-05-0.185D-05-0.301D-04
 Coeff-Com:  0.114D-05 0.206D-04-0.368D-05 0.166D-02 0.172D-01 0.164D+00
 Coeff-Com:  0.817D+00
 Coeff:     -0.329D-06-0.240D-06-0.200D-05-0.316D-05-0.185D-05-0.301D-04
 Coeff:      0.114D-05 0.206D-04-0.368D-05 0.166D-02 0.172D-01 0.164D+00
 Coeff:      0.817D+00
 Gap=     0.116 Goal=   None    Shift=    0.000
 RMSDP=6.88D-09 MaxDP=6.87D-08 DE=-8.81D-10 OVMax= 1.16D-07

 SCF Done:  E(RPBE-PBE) =  -239.378989385     A.U. after   13 cycles
            NFock= 13  Conv=0.69D-08     -V/T= 2.0081
 KE= 2.374605697034D+02 PE=-7.036081895022D+02 EE= 1.627374739567D+02
 Leave Link  502 at Wed Jan 23 22:24:25 2019, MaxMem=   268435456 cpu:               7.2 elap:               1.8
 (Enter /opt/shared/g16/l601.exe)
 Copying SCF densities to generalized density rwf, IOpCl= 0 IROHF=0.

 **********************************************************************

            Population analysis using the SCF Density.

 **********************************************************************

 Orbital symmetries:
       Occupied  (A') (A') (A') (A') (A') (A') (A') (A') (A") (A')
                 (A") (A') (A") (A')
       Virtual   (A') (A') (A") (A') (A') (A") (A') (A') (A") (A')
                 (A') (A') (A') (A") (A') (A') (A") (A') (A') (A')
                 (A") (A') (A') (A") (A') (A') (A") (A') (A") (A')
                 (A') (A') (A") (A') (A') (A') (A") (A') (A") (A')
                 (A') (A') (A") (A") (A') (A') (A') (A') (A')
 The electronic state is 1-A'.
 Alpha  occ. eigenvalues --  -24.08925 -23.88857  -9.77909  -0.88966  -0.64737
 Alpha  occ. eigenvalues --   -0.44170  -0.23897  -0.22927  -0.22927  -0.11847
 Alpha  occ. eigenvalues --   -0.11847   0.02480   0.02758   0.02758
 Alpha virt. eigenvalues --    0.14320   0.18961   0.18970   0.18970   0.26826
 Alpha virt. eigenvalues --    0.33713   0.33713   0.34204   0.38531   0.38531
 Alpha virt. eigenvalues --    0.41219   0.43295   0.47819   0.47819   0.51143
 Alpha virt. eigenvalues --    0.58572   0.79139   0.79140   0.94349   1.03385
 Alpha virt. eigenvalues --    1.03385   1.17526   1.36376   1.53267   1.53268
 Alpha virt. eigenvalues --    1.71212   1.71212   1.71410   1.77364   1.77364
 Alpha virt. eigenvalues --    1.81792   1.94005   1.94005   2.07016   2.08312
 Alpha virt. eigenvalues --    2.13322   2.13322   2.13957   2.13957   2.16398
 Alpha virt. eigenvalues --    2.29941   2.31435   2.31436   2.43754   2.43754
 Alpha virt. eigenvalues --    3.15651   4.41693   4.92308   5.20552
          Condensed to atoms (all electrons):
               1          2          3          4          5          6
     1  C    5.233387   0.403225   0.403228   0.403228  -0.003963  -0.038626
     2  H    0.403225   0.493963  -0.027384  -0.027384  -0.014234  -0.050197
     3  H    0.403228  -0.027384   0.493957  -0.027383  -0.014235  -0.050198
     4  H    0.403228  -0.027384  -0.027383   0.493957  -0.014235  -0.050198
     5  F   -0.003963  -0.014234  -0.014235  -0.014235   9.914224   0.014194
     6  F   -0.038626  -0.050197  -0.050198  -0.050198   0.014194   9.558834
 Mulliken charges:
               1
     1  C   -0.400479
     2  H    0.222011
     3  H    0.222014
     4  H    0.222014
     5  F   -0.881751
     6  F   -0.383810
 Sum of Mulliken charges =  -1.00000
 Mulliken charges with hydrogens summed into heavy atoms:
               1
     1  C    0.265561
     5  F   -0.881751
     6  F   -0.383810
 Electronic spatial extent (au):  <R**2>=            333.1489
 Charge=             -1.0000 electrons
 Dipole moment (field-independent basis, Debye):
    X=              0.0002    Y=              5.8885    Z=             -0.0000  Tot=              5.8885
 Quadrupole moment (field-independent basis, Debye-Ang):
   XX=            -19.9698   YY=            -47.3671   ZZ=            -19.9697
   XY=             -0.0014   XZ=             -0.0000   YZ=              0.0000
 Traceless Quadrupole moment (field-independent basis, Debye-Ang):
   XX=              9.1325   YY=            -18.2649   ZZ=              9.1325
   XY=             -0.0014   XZ=             -0.0000   YZ=              0.0000
 Octapole moment (field-independent basis, Debye-Ang**2):
  XXX=             -0.7328  YYY=             38.1149  ZZZ=             -0.0000  XYY=              0.0015
  XXY=              2.9491  XXZ=             -0.0000  XZZ=              0.7335  YZZ=              2.9490
  YYZ=              0.0000  XYZ=              0.0000
 Hexadecapole moment (field-independent basis, Debye-Ang**3):
 XXXX=            -28.6083 YYYY=           -447.6535 ZZZZ=            -28.6084 XXXY=              0.0260
 XXXZ=              0.0000 YYYX=             -0.0129 YYYZ=              0.0000 ZZZX=              0.0000
 ZZZY=             -0.0000 XXYY=            -61.7694 XXZZ=             -9.5362 YYZZ=            -61.7694
 XXYZ=              0.0000 YYXZ=              0.0000 ZZXY=             -0.0364
 N-N= 6.403115645706D+01 E-N=-7.036081867342D+02  KE= 2.374605697034D+02
 Symmetry A'   KE= 2.234742173769D+02
 Symmetry A"   KE= 1.398635232652D+01
 No NMR shielding tensors so no spin-rotation constants.
 Leave Link  601 at Wed Jan 23 22:24:25 2019, MaxMem=   268435456 cpu:               0.3 elap:               0.1
 (Enter /opt/shared/g16/l607.exe)
 ******************************Gaussian NBO Version 3.1******************************
             N A T U R A L   A T O M I C   O R B I T A L   A N D
          N A T U R A L   B O N D   O R B I T A L   A N A L Y S I S
 ******************************Gaussian NBO Version 3.1******************************

       /RESON  / : Allow strongly delocalized NBO set
       /BNDIDX / : Print bond indices based on the NAO density matrix

 Analyzing the SCF density

 Job title: Single Point computation for reaction coordinate: -3.53557      

 Storage needed:     12279 in NPA,     16120 in NBO ( 268435216 available)
 GSVD:  LWork=        1385 too small for GESVD, short by        3477 words or        3477 for optimal perf.


 NATURAL POPULATIONS:  Natural atomic orbital occupancies 
                                                          
   NAO  Atom  No  lang   Type(AO)    Occupancy      Energy
 ----------------------------------------------------------
     1    C    1  S      Cor( 1S)     1.99945      -9.67918
     2    C    1  S      Val( 2S)     1.17090      -0.12481
     3    C    1  S      Ryd( 4S)     0.00223       1.04009
     4    C    1  S      Ryd( 3S)     0.00065       0.73178
     5    C    1  S      Ryd( 5S)     0.00002       4.28496
     6    C    1  px     Val( 2p)     1.25153       0.08492
     7    C    1  px     Ryd( 4p)     0.00054       0.65364
     8    C    1  px     Ryd( 3p)     0.00063       0.45541
     9    C    1  py     Val( 2p)     0.58477       0.07568
    10    C    1  py     Ryd( 4p)     0.00808       0.77822
    11    C    1  py     Ryd( 3p)     0.00028       0.73007
    12    C    1  pz     Val( 2p)     1.25153       0.08492
    13    C    1  pz     Ryd( 4p)     0.00054       0.65364
    14    C    1  pz     Ryd( 3p)     0.00063       0.45541
    15    C    1  dxy    Ryd( 3d)     0.00098       1.99580
    16    C    1  dxz    Ryd( 3d)     0.00059       2.14171
    17    C    1  dyz    Ryd( 3d)     0.00098       1.99585
    18    C    1  dx2y2  Ryd( 3d)     0.00166       2.36961
    19    C    1  dz2    Ryd( 3d)     0.00095       2.21768
 
    20    H    2  S      Val( 1S)     0.77572       0.23107
    21    H    2  S      Ryd( 2S)     0.00133       0.79880
 
    22    H    3  S      Val( 1S)     0.77571       0.23107
    23    H    3  S      Ryd( 2S)     0.00133       0.79880
 
    24    H    4  S      Val( 1S)     0.77571       0.23107
    25    H    4  S      Ryd( 2S)     0.00133       0.79880
 
    26    F    5  S      Cor( 1S)     2.00000     -23.81432
    27    F    5  S      Val( 2S)     1.99664      -0.71777
    28    F    5  S      Ryd( 3S)     0.00011       1.23821
    29    F    5  S      Ryd( 4S)     0.00003       1.96808
    30    F    5  S      Ryd( 5S)     0.00000       4.22200
    31    F    5  px     Val( 2p)     1.99689       0.02713
    32    F    5  px     Ryd( 3p)     0.00006       0.48450
    33    F    5  px     Ryd( 4p)     0.00001       1.74226
    34    F    5  py     Val( 2p)     1.93359       0.02801
    35    F    5  py     Ryd( 3p)     0.00007       0.63071
    36    F    5  py     Ryd( 4p)     0.00001       1.84007
    37    F    5  pz     Val( 2p)     1.99689       0.02713
    38    F    5  pz     Ryd( 3p)     0.00006       0.48451
    39    F    5  pz     Ryd( 4p)     0.00001       1.74226
    40    F    5  dxy    Ryd( 3d)     0.00001       2.14364
    41    F    5  dxz    Ryd( 3d)     0.00000       2.13681
    42    F    5  dyz    Ryd( 3d)     0.00001       2.14364
    43    F    5  dx2y2  Ryd( 3d)     0.00002       2.21026
    44    F    5  dz2    Ryd( 3d)     0.00001       2.16129
 
    45    F    6  S      Cor( 1S)     1.99997     -23.86725
    46    F    6  S      Val( 2S)     1.88044      -0.98300
    47    F    6  S      Ryd( 4S)     0.00154       1.68642
    48    F    6  S      Ryd( 3S)     0.00036       1.33931
    49    F    6  S      Ryd( 5S)     0.00000       4.56204
    50    F    6  px     Val( 2p)     1.98151      -0.15200
    51    F    6  px     Ryd( 3p)     0.00065       0.53002
    52    F    6  px     Ryd( 4p)     0.00005       1.51801
    53    F    6  py     Val( 2p)     1.61609      -0.17596
    54    F    6  py     Ryd( 3p)     0.00175       0.68194
    55    F    6  py     Ryd( 4p)     0.00011       1.65130
    56    F    6  pz     Val( 2p)     1.98151      -0.15200
    57    F    6  pz     Ryd( 3p)     0.00065       0.53002
    58    F    6  pz     Ryd( 4p)     0.00005       1.51801
    59    F    6  dxy    Ryd( 3d)     0.00080       2.08348
    60    F    6  dxz    Ryd( 3d)     0.00000       1.96110
    61    F    6  dyz    Ryd( 3d)     0.00080       2.08348
    62    F    6  dx2y2  Ryd( 3d)     0.00089       2.37773
    63    F    6  dz2    Ryd( 3d)     0.00030       2.09998

 WARNING:  Population inversion found on atom  C    1
           Population inversion found on atom  F    6


 Summary of Natural Population Analysis:                  
                                                          
                                       Natural Population 
                Natural  -----------------------------------------------
    Atom  No    Charge         Core      Valence    Rydberg      Total
 -----------------------------------------------------------------------
      C    1   -0.27694      1.99945     4.25874    0.01876     6.27694
      H    2    0.22295      0.00000     0.77572    0.00133     0.77705
      H    3    0.22295      0.00000     0.77571    0.00133     0.77705
      H    4    0.22295      0.00000     0.77571    0.00133     0.77705
      F    5   -0.92445      2.00000     7.92402    0.00043     9.92445
      F    6   -0.46746      1.99997     7.45955    0.00794     9.46746
 =======================================================================
   * Total *   -1.00000      5.99941    21.96945    0.03114    28.00000

                                 Natural Population      
 --------------------------------------------------------
   Core                       5.99941 ( 99.9902% of   6)
   Valence                   21.96945 ( 99.8611% of  22)
   Natural Minimal Basis     27.96886 ( 99.8888% of  28)
   Natural Rydberg Basis      0.03114 (  0.1112% of  28)
 --------------------------------------------------------

    Atom  No          Natural Electron Configuration
 ----------------------------------------------------------------------------
      C    1      [core]2S( 1.17)2p( 3.09)3d( 0.01)4p( 0.01)
      H    2            1S( 0.78)
      H    3            1S( 0.78)
      H    4            1S( 0.78)
      F    5      [core]2S( 2.00)2p( 5.93)
      F    6      [core]2S( 1.88)2p( 5.58)


 Wiberg bond index matrix in the NAO basis:                                    

     Atom    1       2       3       4       5       6
     ---- ------  ------  ------  ------  ------  ------
   1.  C  0.0000  0.9311  0.9311  0.9311  0.1068  0.7490
   2.  H  0.9311  0.0000  0.0002  0.0002  0.0030  0.0179
   3.  H  0.9311  0.0002  0.0000  0.0002  0.0030  0.0179
   4.  H  0.9311  0.0002  0.0002  0.0000  0.0030  0.0179
   5.  F  0.1068  0.0030  0.0030  0.0030  0.0000  0.0317
   6.  F  0.7490  0.0179  0.0179  0.0179  0.0317  0.0000


 Wiberg bond index, Totals by atom:                                            

     Atom    1
     ---- ------
   1.  C  3.6491
   2.  H  0.9524
   3.  H  0.9524
   4.  H  0.9524
   5.  F  0.1475
   6.  F  0.8344


 Atom-atom overlap-weighted NAO bond order:                                    

     Atom    1       2       3       4       5       6
     ---- ------  ------  ------  ------  ------  ------
   1.  C  0.0000  0.7582  0.7582  0.7582  0.0630  0.5353
   2.  H  0.7582  0.0000  0.0002  0.0002 -0.0017 -0.0311
   3.  H  0.7582  0.0002  0.0000  0.0002 -0.0017 -0.0311
   4.  H  0.7582  0.0002  0.0002  0.0000 -0.0017 -0.0311
   5.  F  0.0630 -0.0017 -0.0017 -0.0017  0.0000  0.0075
   6.  F  0.5353 -0.0311 -0.0311 -0.0311  0.0075  0.0000


 Atom-atom overlap-weighted NAO bond order, Totals by atom:                    

     Atom    1
     ---- ------
   1.  C  2.8730
   2.  H  0.7258
   3.  H  0.7258
   4.  H  0.7258
   5.  F  0.0655
   6.  F  0.4496


 MO bond order:                                                                

     Atom    1       2       3       4       5       6
     ---- ------  ------  ------  ------  ------  ------
   1.  C  0.0000 -0.4171  1.4420  0.0691 -0.7132  0.0689
   2.  H -0.4171  0.0000  0.0217  0.0217  0.0008  0.1363
   3.  H  1.4420  0.0217  0.0000  0.0217  0.0236 -0.1436
   4.  H  0.0691  0.0217  0.0217  0.0000  0.0070  0.0604
   5.  F -0.7132  0.0008  0.0236  0.0070  0.0000 -0.0548
   6.  F  0.0689  0.1363 -0.1436  0.0604 -0.0548  0.0000


 MO atomic valencies:                                                          

     Atom    1
     ---- ------
   1.  C  0.4497
   2.  H -0.2365
   3.  H  1.3654
   4.  H  0.1799
   5.  F -0.7366
   6.  F  0.0672


 NATURAL BOND ORBITAL ANALYSIS:

                       Occupancies       Lewis Structure    Low   High
           Occ.    -------------------  -----------------   occ   occ
  Cycle   Thresh.   Lewis   Non-Lewis     CR  BD  3C  LP    (L)   (NL)   Dev
 =============================================================================
   1(1)    1.90    27.86819   0.13181      3   4   0   7     0      0    0.11
   2(2)    1.90    27.86819   0.13181      3   4   0   7     0      0    0.11
   3(1)    1.80    27.86819   0.13181      3   4   0   7     0      0    0.11
   4(2)    1.80    27.86819   0.13181      3   4   0   7     0      0    0.11
   5(1)    1.70    27.86819   0.13181      3   4   0   7     0      0    0.11
   6(2)    1.70    27.86819   0.13181      3   4   0   7     0      0    0.11
   7(1)    1.60    27.86819   0.13181      3   4   0   7     0      0    0.11
   8(2)    1.60    27.86819   0.13181      3   4   0   7     0      0    0.11
   9(1)    1.50    27.38394   0.61606      3   3   0   8     0      1    0.75
  10(2)    1.50    27.38394   0.61606      3   3   0   8     0      1    0.75
  11(1)    1.90    27.86819   0.13181      3   4   0   7     0      0    0.11
 -----------------------------------------------------------------------------

 Structure accepted: RESONANCE keyword permits strongly delocalized structure

 --------------------------------------------------------
   Core                      5.99941 ( 99.990% of   6)
   Valence Lewis            21.86878 ( 99.404% of  22)
  ==================       ============================
   Total Lewis              27.86819 ( 99.529% of  28)
  -----------------------------------------------------
   Valence non-Lewis         0.10868 (  0.388% of  28)
   Rydberg non-Lewis         0.02313 (  0.083% of  28)
  ==================       ============================
   Total non-Lewis           0.13181 (  0.471% of  28)
 --------------------------------------------------------


       (Occupancy)   Bond orbital/ Coefficients/ Hybrids
 ---------------------------------------------------------------------------------
     1. (1.99589) BD ( 1) C   1 - H   2  
                ( 61.55%)   0.7846* C   1 s( 27.99%)p 2.57( 71.94%)d 0.00(  0.06%)
                                           -0.0001 -0.5290 -0.0070 -0.0017  0.0006
                                            0.8162  0.0069 -0.0025  0.2301 -0.0133
                                            0.0032  0.0000  0.0000  0.0000 -0.0087
                                            0.0000 -0.0000 -0.0218  0.0078
                ( 38.45%)   0.6200* H   2 s(100.00%)
                                           -1.0000 -0.0032
     2. (1.99589) BD ( 1) C   1 - H   3  
                ( 61.55%)   0.7846* C   1 s( 27.99%)p 2.57( 71.94%)d 0.00(  0.06%)
                                            0.0001  0.5290  0.0070  0.0017 -0.0006
                                            0.4081  0.0035 -0.0013 -0.2302  0.0133
                                           -0.0032  0.7069  0.0060 -0.0022 -0.0043
                                            0.0153 -0.0075  0.0086  0.0151
                ( 38.45%)   0.6200* H   3 s(100.00%)
                                            1.0000  0.0032
     3. (1.99589) BD ( 1) C   1 - H   4  
                ( 61.55%)   0.7846* C   1 s( 27.99%)p 2.57( 71.94%)d 0.00(  0.06%)
                                            0.0001  0.5290  0.0070  0.0017 -0.0006
                                            0.4081  0.0035 -0.0013 -0.2302  0.0133
                                           -0.0032 -0.7069 -0.0060  0.0022 -0.0043
                                           -0.0153  0.0075  0.0086  0.0151
                ( 38.45%)   0.6200* H   4 s(100.00%)
                                            1.0000  0.0032
     4. (1.99765) BD ( 1) C   1 - F   6  
                ( 25.57%)   0.5057* C   1 s( 16.24%)p 5.14( 83.55%)d 0.01(  0.21%)
                                           -0.0001 -0.4003  0.0460  0.0064 -0.0041
                                           -0.0001  0.0000 -0.0000 -0.9119  0.0621
                                           -0.0060 -0.0000 -0.0000 -0.0000 -0.0000
                                           -0.0000  0.0000  0.0399  0.0230
                ( 74.43%)   0.8627* F   6 s( 23.26%)p 3.30( 76.66%)d 0.00(  0.08%)
                                           -0.0000 -0.4820 -0.0084  0.0125  0.0000
                                            0.0001 -0.0000  0.0000  0.8753 -0.0212
                                            0.0081  0.0000  0.0000  0.0000 -0.0000
                                            0.0000  0.0000  0.0243  0.0141
     5. (1.99944) CR ( 1) C   1           s(100.00%)
                                            1.0000 -0.0001  0.0000  0.0000 -0.0000
                                           -0.0000  0.0000 -0.0000 -0.0001  0.0000
                                           -0.0000 -0.0000 -0.0000  0.0000 -0.0000
                                           -0.0000  0.0000  0.0000  0.0000
     6. (2.00000) CR ( 1) F   5           s(100.00%)
                                            1.0000  0.0000 -0.0000  0.0000 -0.0000
                                            0.0000  0.0000 -0.0000 -0.0000  0.0000
                                           -0.0000  0.0000  0.0000  0.0000  0.0000
                                            0.0000  0.0000  0.0000  0.0000
     7. (1.99997) CR ( 1) F   6           s(100.00%)
                                            1.0000  0.0001 -0.0000  0.0000  0.0000
                                            0.0000 -0.0000 -0.0000  0.0000 -0.0000
                                           -0.0000  0.0000  0.0000  0.0000 -0.0000
                                            0.0000  0.0000  0.0000  0.0000
     8. (1.99959) LP ( 1) F   5           s( 95.73%)p 0.04(  4.27%)d 0.00(  0.00%)
                                           -0.0000  0.9784 -0.0012  0.0004 -0.0000
                                           -0.0000  0.0000  0.0000 -0.2065 -0.0008
                                            0.0009  0.0000  0.0000  0.0000 -0.0000
                                            0.0000  0.0000 -0.0003 -0.0002
     9. (1.99690) LP ( 2) F   5           s(  0.00%)p 1.00(100.00%)d 0.00(  0.00%)
                                           -0.0000  0.0000  0.0000 -0.0000 -0.0000
                                            1.0000  0.0006 -0.0005 -0.0000 -0.0000
                                            0.0000  0.0000  0.0000  0.0000  0.0022
                                            0.0000  0.0000  0.0001 -0.0001
    10. (1.99690) LP ( 3) F   5           s(  0.00%)p 1.00(100.00%)d 0.00(  0.00%)
                                            0.0000  0.0000  0.0000  0.0000  0.0000
                                            0.0000  0.0000  0.0000  0.0000  0.0000
                                            0.0000  1.0000  0.0006 -0.0005  0.0000
                                           -0.0001  0.0022  0.0000  0.0000
    11. (1.93076) LP ( 4) F   5           s(  4.27%)p22.42( 95.73%)d 0.00(  0.00%)
                                            0.0000  0.2065  0.0060 -0.0020  0.0001
                                            0.0000 -0.0000  0.0000  0.9784 -0.0015
                                            0.0013  0.0000  0.0000  0.0000  0.0000
                                            0.0000  0.0000 -0.0029 -0.0017
    12. (1.99468) LP ( 1) F   6           s( 76.75%)p 0.30( 23.25%)d 0.00(  0.00%)
                                           -0.0001  0.8761 -0.0050  0.0048  0.0000
                                            0.0000 -0.0000 -0.0000  0.4821 -0.0080
                                           -0.0016  0.0000  0.0000  0.0000 -0.0000
                                            0.0000  0.0000  0.0019  0.0011
    13. (1.98231) LP ( 2) F   6           s(  0.00%)p 1.00( 99.97%)d 0.00(  0.03%)
                                            0.0000  0.0000  0.0000  0.0000  0.0000
                                            0.0000  0.0000  0.0000  0.0000  0.0000
                                            0.0000  0.9998  0.0078 -0.0023  0.0000
                                           -0.0003 -0.0184  0.0000  0.0000
    14. (1.98231) LP ( 3) F   6           s(  0.00%)p 1.00( 99.97%)d 0.00(  0.03%)
                                           -0.0000  0.0000  0.0000 -0.0000 -0.0000
                                            0.9998  0.0078 -0.0023 -0.0001 -0.0000
                                            0.0000  0.0000  0.0000  0.0000 -0.0184
                                            0.0000  0.0000  0.0001 -0.0003
    15. (0.00998) RY*( 1) C   1           s( 16.40%)p 4.70( 77.06%)d 0.40(  6.53%)
                                           -0.0000  0.0050  0.3875 -0.1165  0.0165
                                            0.0000  0.0001 -0.0000  0.0878  0.8684
                                            0.0941  0.0000  0.0000  0.0000 -0.0000
                                            0.0000 -0.0000  0.2214  0.1278
    16. (0.00113) RY*( 2) C   1           s(  0.00%)p 1.00( 20.42%)d 3.90( 79.58%)
                                            0.0000 -0.0000 -0.0000 -0.0000  0.0000
                                            0.0094  0.3196  0.3194 -0.0000 -0.0000
                                            0.0000  0.0000  0.0000  0.0000  0.8887
                                           -0.0000  0.0000  0.0385 -0.0664
    17. (0.00113) RY*( 3) C   1           s(  0.00%)p 1.00( 20.42%)d 3.90( 79.58%)
                                           -0.0000  0.0000 -0.0000 -0.0000  0.0000
                                            0.0000 -0.0000  0.0000 -0.0000 -0.0000
                                            0.0000  0.0094  0.3195  0.3195 -0.0000
                                           -0.0766  0.8888  0.0000  0.0000
    18. (0.00084) RY*( 4) C   1           s(  0.00%)p 1.00( 98.82%)d 0.01(  1.18%)
                                           -0.0000  0.0000  0.0000  0.0001  0.0000
                                           -0.0050  0.6168 -0.7796 -0.0000 -0.0000
                                            0.0001 -0.0000 -0.0000  0.0000  0.0501
                                           -0.0000  0.0000  0.0480 -0.0834
    19. (0.00084) RY*( 5) C   1           s(  0.00%)p 1.00( 98.82%)d 0.01(  1.18%)
                                           -0.0000 -0.0000 -0.0000 -0.0000  0.0000
                                           -0.0000 -0.0000 -0.0000  0.0000 -0.0000
                                            0.0000  0.0050 -0.6168  0.7796  0.0000
                                            0.0962 -0.0502 -0.0000 -0.0000
    20. (0.00084) RY*( 6) C   1           s( 54.53%)p 0.30( 16.16%)d 0.54( 29.31%)
                                            0.0000  0.0055  0.1680  0.7131  0.0925
                                            0.0000 -0.0001  0.0002 -0.0097  0.1383
                                            0.3773  0.0000  0.0000  0.0000  0.0000
                                           -0.0000  0.0000 -0.4688 -0.2707
    21. (0.00008) RY*( 7) C   1           s( 75.59%)p 0.31( 23.59%)d 0.01(  0.83%)
    22. (0.00000) RY*( 8) C   1           s(  0.00%)p 1.00( 79.81%)d 0.25( 20.19%)
    23. (0.00000) RY*( 9) C   1           s(  0.00%)p 1.00( 79.80%)d 0.25( 20.20%)
    24. (0.00000) RY*(10) C   1           s( 40.22%)p 0.11(  4.27%)d 1.38( 55.52%)
    25. (0.00000) RY*(11) C   1           s(  0.00%)p 1.00(  1.01%)d98.27( 98.99%)
    26. (0.00000) RY*(12) C   1           s( 99.71%)p 0.00(  0.16%)d 0.00(  0.14%)
    27. (0.00000) RY*(13) C   1           s( 10.42%)p 7.49( 77.99%)d 1.11( 11.60%)
    28. (0.00000) RY*(14) C   1           s(  2.92%)p 0.79(  2.30%)d32.49( 94.79%)
    29. (0.00134) RY*( 1) H   2           s(100.00%)
                                           -0.0032  1.0000
    30. (0.00134) RY*( 1) H   3           s(100.00%)
                                           -0.0032  1.0000
    31. (0.00134) RY*( 1) H   4           s(100.00%)
                                           -0.0032  1.0000
    32. (0.00012) RY*( 1) F   5           s( 40.57%)p 1.28( 51.97%)d 0.18(  7.46%)
                                           -0.0000 -0.0008  0.4630  0.4373  0.0095
                                           -0.0000 -0.0001 -0.0000 -0.0035 -0.6889
                                           -0.2124 -0.0000 -0.0000 -0.0000  0.0000
                                           -0.0000 -0.0000 -0.2365 -0.1365
    33. (0.00006) RY*( 2) F   5           s(  0.00%)p 1.00( 99.83%)d 0.00(  0.17%)
    34. (0.00006) RY*( 3) F   5           s(  0.00%)p 1.00( 99.83%)d 0.00(  0.17%)
    35. (0.00002) RY*( 4) F   5           s( 47.54%)p 0.96( 45.87%)d 0.14(  6.58%)
    36. (0.00002) RY*( 5) F   5           s(  0.00%)p 1.00( 82.15%)d 0.22( 17.85%)
    37. (0.00002) RY*( 6) F   5           s(  0.00%)p 1.00( 82.15%)d 0.22( 17.85%)
    38. (0.00000) RY*( 7) F   5           s( 12.47%)p 7.01( 87.38%)d 0.01(  0.16%)
    39. (0.00000) RY*( 8) F   5           s( 99.43%)p 0.01(  0.52%)d 0.00(  0.05%)
    40. (0.00000) RY*( 9) F   5           s( 86.46%)p 0.13( 10.99%)d 0.03(  2.55%)
    41. (0.00000) RY*(10) F   5           s(  0.00%)p 1.00( 17.96%)d 4.57( 82.04%)
    42. (0.00000) RY*(11) F   5           s(  0.00%)p 1.00(  0.06%)d99.99( 99.94%)
    43. (0.00000) RY*(12) F   5           s(  0.00%)p 1.00( 17.96%)d 4.57( 82.04%)
    44. (0.00000) RY*(13) F   5           s( 10.93%)p 0.24(  2.64%)d 7.91( 86.43%)
    45. (0.00000) RY*(14) F   5           s(  2.59%)p 0.27(  0.70%)d37.34( 96.71%)
    46. (0.00250) RY*( 1) F   6           s( 53.61%)p 0.86( 46.07%)d 0.01(  0.32%)
                                            0.0000  0.0035  0.7139  0.1626 -0.0000
                                           -0.0000 -0.0001  0.0000 -0.0120 -0.6783
                                            0.0213  0.0000  0.0000  0.0000 -0.0000
                                            0.0000  0.0000  0.0492  0.0284
    47. (0.00070) RY*( 2) F   6           s(  0.00%)p 1.00( 81.66%)d 0.22( 18.34%)
                                           -0.0000 -0.0000 -0.0000  0.0000  0.0000
                                            0.0015  0.8696  0.2457 -0.0000 -0.0001
                                           -0.0000  0.0000  0.0000  0.0000  0.4229
                                            0.0000  0.0000  0.0337 -0.0583
    48. (0.00070) RY*( 3) F   6           s(  0.00%)p 1.00( 81.66%)d 0.22( 18.34%)
                                            0.0000  0.0000  0.0000  0.0000  0.0000
                                            0.0000  0.0000  0.0000  0.0000  0.0000
                                            0.0000  0.0015  0.8696  0.2457  0.0000
                                           -0.0672  0.4229  0.0000  0.0000
    49. (0.00007) RY*( 4) F   6           s( 84.39%)p 0.14( 12.12%)d 0.04(  3.49%)
    50. (0.00000) RY*( 5) F   6           s(  0.00%)p 1.00(100.00%)
    51. (0.00000) RY*( 6) F   6           s( 59.01%)p 0.69( 40.99%)d 0.00(  0.00%)
    52. (0.00000) RY*( 7) F   6           s(  0.24%)p99.99( 99.76%)d 0.00(  0.00%)
    53. (0.00000) RY*( 8) F   6           s(100.00%)p 0.00(  0.00%)d 0.00(  0.00%)
    54. (0.00000) RY*( 9) F   6           s(  0.00%)p 1.00(100.00%)
    55. (0.00000) RY*(10) F   6           s(  0.00%)p 1.00( 18.00%)d 4.56( 82.00%)
    56. (0.00000) RY*(11) F   6           s(  0.00%)p 1.00(  0.55%)d99.99( 99.45%)
    57. (0.00000) RY*(12) F   6           s(  0.00%)p 1.00( 17.82%)d 4.61( 82.18%)
    58. (0.00000) RY*(13) F   6           s(  2.08%)p 0.46(  0.96%)d46.72( 96.96%)
    59. (0.00000) RY*(14) F   6           s(  0.67%)p 0.84(  0.56%)d99.99( 98.77%)
    60. (0.01362) BD*( 1) C   1 - H   2  
                ( 38.45%)   0.6200* C   1 s( 27.99%)p 2.57( 71.94%)d 0.00(  0.06%)
                                            0.0001  0.5290  0.0070  0.0017 -0.0006
                                           -0.8162 -0.0069  0.0025 -0.2301  0.0133
                                           -0.0032 -0.0000 -0.0000 -0.0000  0.0087
                                           -0.0000  0.0000  0.0218 -0.0078
                ( 61.55%)  -0.7846* H   2 s(100.00%)
                                            1.0000  0.0032
    61. (0.01362) BD*( 1) C   1 - H   3  
                ( 38.45%)   0.6200* C   1 s( 27.99%)p 2.57( 71.94%)d 0.00(  0.06%)
                                           -0.0001 -0.5290 -0.0070 -0.0017  0.0006
                                           -0.4081 -0.0035  0.0013  0.2302 -0.0133
                                            0.0032 -0.7069 -0.0060  0.0022  0.0043
                                           -0.0153  0.0075 -0.0086 -0.0151
                ( 61.55%)  -0.7846* H   3 s(100.00%)
                                           -1.0000 -0.0032
    62. (0.01362) BD*( 1) C   1 - H   4  
                ( 38.45%)   0.6200* C   1 s( 27.99%)p 2.57( 71.94%)d 0.00(  0.06%)
                                           -0.0001 -0.5290 -0.0070 -0.0017  0.0006
                                           -0.4081 -0.0035  0.0013  0.2302 -0.0133
                                            0.0032  0.7069  0.0060 -0.0022  0.0043
                                            0.0153 -0.0075 -0.0086 -0.0151
                ( 61.55%)  -0.7846* H   4 s(100.00%)
                                           -1.0000 -0.0032
    63. (0.06782) BD*( 1) C   1 - F   6  
                ( 74.43%)   0.8627* C   1 s( 16.24%)p 5.14( 83.55%)d 0.01(  0.21%)
                                           -0.0001 -0.4003  0.0460  0.0064 -0.0041
                                           -0.0001  0.0000 -0.0000 -0.9119  0.0621
                                           -0.0060 -0.0000 -0.0000 -0.0000 -0.0000
                                           -0.0000  0.0000  0.0399  0.0230
                ( 25.57%)  -0.5057* F   6 s( 23.26%)p 3.30( 76.66%)d 0.00(  0.08%)
                                           -0.0000 -0.4820 -0.0084  0.0125  0.0000
                                            0.0001 -0.0000  0.0000  0.8753 -0.0212
                                            0.0081  0.0000  0.0000  0.0000 -0.0000
                                            0.0000  0.0000  0.0243  0.0141


 NHO Directionality and "Bond Bending" (deviations from line of nuclear centers)

         [Thresholds for printing:  angular deviation  >  1.0 degree]
                                    hybrid p-character > 25.0%
                                    orbital occupancy  >  0.10e

                                Line of Centers        Hybrid 1              Hybrid 2
                                ---------------  -------------------   ------------------
                NBO               Theta   Phi    Theta   Phi    Dev    Theta   Phi    Dev
 ========================================================================================
     1. BD (   1) C   1 - H   2    90.0  197.6    90.0  195.0   2.6      --     --    --
     2. BD (   1) C   1 - H   3    34.4  327.6    33.2  331.8   2.6      --     --    --
     3. BD (   1) C   1 - H   4   145.6  327.6   146.8  331.8   2.6      --     --    --
     9. LP (   2) F   5             --     --     90.0    0.0   --       --     --    --
    10. LP (   3) F   5             --     --      0.0    0.0   --       --     --    --
    11. LP (   4) F   5             --     --     90.0   90.0   --       --     --    --
    13. LP (   2) F   6             --     --      0.0    0.0   --       --     --    --
    14. LP (   3) F   6             --     --     90.0    0.0   --       --     --    --


 Second Order Perturbation Theory Analysis of Fock Matrix in NBO Basis

     Threshold for printing:   0.50 kcal/mol
    (Intermolecular threshold: 0.05 kcal/mol)
                                                                              E(2)  E(j)-E(i) F(i,j)
         Donor NBO (i)                     Acceptor NBO (j)                 kcal/mol   a.u.    a.u. 
 ===================================================================================================

 within unit  1
   1. BD (   1) C   1 - H   2        / 63. BD*(   1) C   1 - F   6            1.97    0.57    0.030
   2. BD (   1) C   1 - H   3        / 63. BD*(   1) C   1 - F   6            1.97    0.57    0.030
   3. BD (   1) C   1 - H   4        / 63. BD*(   1) C   1 - F   6            1.97    0.57    0.030
   5. CR (   1) C   1                / 63. BD*(   1) C   1 - F   6            3.30    9.96    0.164
   7. CR (   1) F   6                / 15. RY*(   1) C   1                    1.28   24.71    0.159
  12. LP (   1) F   6                / 15. RY*(   1) C   1                    3.51    1.65    0.068
  12. LP (   1) F   6                / 20. RY*(   6) C   1                    0.71    2.16    0.035
  13. LP (   2) F   6                / 17. RY*(   3) C   1                    0.83    1.87    0.035
  13. LP (   2) F   6                / 61. BD*(   1) C   1 - H   3            2.91    0.71    0.041
  13. LP (   2) F   6                / 62. BD*(   1) C   1 - H   4            2.91    0.71    0.041
  14. LP (   3) F   6                / 16. RY*(   2) C   1                    0.83    1.87    0.035
  14. LP (   3) F   6                / 60. BD*(   1) C   1 - H   2            3.89    0.71    0.047
  14. LP (   3) F   6                / 61. BD*(   1) C   1 - H   3            0.97    0.71    0.023
  14. LP (   3) F   6                / 62. BD*(   1) C   1 - H   4            0.97    0.71    0.023

 from unit  1 to unit  2
       None above threshold

 from unit  2 to unit  1
   6. CR (   1) F   5                / 63. BD*(   1) C   1 - F   6            0.11   24.09    0.047
   8. LP (   1) F   5                / 15. RY*(   1) C   1                    0.15    1.53    0.013
   8. LP (   1) F   5                / 21. RY*(   7) C   1                    0.05    1.76    0.009
   8. LP (   1) F   5                / 63. BD*(   1) C   1 - F   6            0.98    0.96    0.028
   9. LP (   2) F   5                / 18. RY*(   4) C   1                    0.14    0.35    0.006
   9. LP (   2) F   5                / 60. BD*(   1) C   1 - H   2            0.27    0.53    0.011
   9. LP (   2) F   5                / 61. BD*(   1) C   1 - H   3            0.07    0.53    0.005
   9. LP (   2) F   5                / 62. BD*(   1) C   1 - H   4            0.07    0.53    0.005
  10. LP (   3) F   5                / 19. RY*(   5) C   1                    0.14    0.35    0.006
  10. LP (   3) F   5                / 61. BD*(   1) C   1 - H   3            0.20    0.53    0.009
  10. LP (   3) F   5                / 62. BD*(   1) C   1 - H   4            0.20    0.53    0.009
  11. LP (   4) F   5                / 15. RY*(   1) C   1                    0.44    0.85    0.018
  11. LP (   4) F   5                / 20. RY*(   6) C   1                    0.05    1.36    0.008
  11. LP (   4) F   5                / 21. RY*(   7) C   1                    0.13    1.08    0.011
  11. LP (   4) F   5                / 63. BD*(   1) C   1 - F   6            6.40    0.28    0.038

 within unit  2
       None above threshold


 Natural Bond Orbitals (Summary):

                                                            Principal Delocalizations
           NBO                        Occupancy    Energy   (geminal,vicinal,remote)
 ====================================================================================
 Molecular unit  1  (CH3F)
     1. BD (   1) C   1 - H   2          1.99589    -0.28800  63(g)
     2. BD (   1) C   1 - H   3          1.99589    -0.28799  63(g)
     3. BD (   1) C   1 - H   4          1.99589    -0.28799  63(g)
     4. BD (   1) C   1 - F   6          1.99765    -0.58651   
     5. CR (   1) C   1                  1.99944    -9.67897  63(g)
     7. CR (   1) F   6                  1.99997   -23.86759  15(v)
    12. LP (   1) F   6                  1.99468    -0.80410  15(v),20(v)
    13. LP (   2) F   6                  1.98231    -0.15239  61(v),62(v),17(v)
    14. LP (   3) F   6                  1.98231    -0.15239  60(v),61(v),62(v),16(v)
    15. RY*(   1) C   1                  0.00998     0.84441   
    16. RY*(   2) C   1                  0.00113     1.71938   
    17. RY*(   3) C   1                  0.00113     1.71936   
    18. RY*(   4) C   1                  0.00084     0.37795   
    19. RY*(   5) C   1                  0.00084     0.37797   
    20. RY*(   6) C   1                  0.00084     1.35563   
    21. RY*(   7) C   1                  0.00008     1.07322   
    22. RY*(   8) C   1                  0.00000     1.04838   
    23. RY*(   9) C   1                  0.00000     1.04805   
    24. RY*(  10) C   1                  0.00000     1.70807   
    25. RY*(  11) C   1                  0.00000     2.09751   
    26. RY*(  12) C   1                  0.00000     4.16505   
    27. RY*(  13) C   1                  0.00000     0.86350   
    28. RY*(  14) C   1                  0.00000     2.07853   
    29. RY*(   1) H   2                  0.00134     0.79706   
    30. RY*(   1) H   3                  0.00134     0.79706   
    31. RY*(   1) H   4                  0.00134     0.79706   
    46. RY*(   1) F   6                  0.00250     1.19690   
    47. RY*(   2) F   6                  0.00070     1.01392   
    48. RY*(   3) F   6                  0.00070     1.01392   
    49. RY*(   4) F   6                  0.00007     0.89452   
    50. RY*(   5) F   6                  0.00000     1.24559   
    51. RY*(   6) F   6                  0.00000     1.62534   
    52. RY*(   7) F   6                  0.00000     1.69532   
    53. RY*(   8) F   6                  0.00000     4.56462   
    54. RY*(   9) F   6                  0.00000     1.24559   
    55. RY*(  10) F   6                  0.00000     1.87678   
    56. RY*(  11) F   6                  0.00000     1.95436   
    57. RY*(  12) F   6                  0.00000     1.87913   
    58. RY*(  13) F   6                  0.00000     2.33660   
    59. RY*(  14) F   6                  0.00000     2.07925   
    60. BD*(   1) C   1 - H   2          0.01362     0.55543   
    61. BD*(   1) C   1 - H   3          0.01362     0.55543   
    62. BD*(   1) C   1 - H   4          0.01362     0.55543   
    63. BD*(   1) C   1 - F   6          0.06782     0.27722   
       -------------------------------
              Total Lewis   17.94404  ( 99.2725%)
        Valence non-Lewis    0.10868  (  0.6012%)
        Rydberg non-Lewis    0.02283  (  0.1263%)
       -------------------------------
            Total unit  1   18.07555  (100.0000%)
           Charge unit  1   -0.07555
 
 Molecular unit  2  (F)
     6. CR (   1) F   5                  2.00000   -23.81432  63(r)
     8. LP (   1) F   5                  1.99959    -0.68557  63(r),15(r),21(r)
     9. LP (   2) F   5                  1.99690     0.02712  60(r),18(r),61(r),62(r)
    10. LP (   3) F   5                  1.99690     0.02712  61(r),62(r),19(r)
    11. LP (   4) F   5                  1.93076    -0.00417  63(r),15(r),21(r),20(r)
    32. RY*(   1) F   5                  0.00012     1.28877   
    33. RY*(   2) F   5                  0.00006     0.47746   
    34. RY*(   3) F   5                  0.00006     0.47746   
    35. RY*(   4) F   5                  0.00002     1.41352   
    36. RY*(   5) F   5                  0.00002     1.83339   
    37. RY*(   6) F   5                  0.00002     1.83339   
    38. RY*(   7) F   5                  0.00000     1.81256   
    39. RY*(   8) F   5                  0.00000     4.32087   
    40. RY*(   9) F   5                  0.00000     1.02662   
    41. RY*(  10) F   5                  0.00000     2.06007   
    42. RY*(  11) F   5                  0.00000     2.13630   
    43. RY*(  12) F   5                  0.00000     2.06007   
    44. RY*(  13) F   5                  0.00000     2.24517   
    45. RY*(  14) F   5                  0.00000     2.16259   
       -------------------------------
              Total Lewis    9.92415  ( 99.9970%)
        Valence non-Lewis    0.00000  (  0.0000%)
        Rydberg non-Lewis    0.00030  (  0.0030%)
       -------------------------------
            Total unit  2    9.92445  (100.0000%)
           Charge unit  2   -0.92445
 Leave Link  607 at Wed Jan 23 22:24:26 2019, MaxMem=   268435456 cpu:               1.0 elap:               0.3
 (Enter /opt/shared/g16/l9999.exe)
 1\1\GINC-N004\SP\RPBEPBE\6-31+G(d)\C1H3F2(1-)\SVOGT\23-Jan-2019\0\\#P 
 PBEPBE/6-31+G* pop=NBORead scf=tight\\Single Point computation for rea
 ction coordinate: -3.53557\\-1,1\C,0,0.,0.379984,0.000025\H,0,0.,0.049
 362,1.043345\H,0,0.903544,0.049363,-0.521637\H,0,-0.903544,0.049363,-0
 .521637\F,0,0.,-2.10539,-0.000033\F,0,0.,1.858398,0.000013\\Version=ES
 64L-G16RevB.01\State=1-A'\HF=-239.3789894\RMSD=6.884e-09\Dipole=0.,2.3
 167007,0.0000569\Quadrupole=6.7897654,-13.5795222,6.7897568,0.,0.,-0.0
 002687\PG=CS [SG(C1H1F2),X(H2)]\\@


 DO NOT LET SELFISH MEN OR GREEDY INTERESTS SKIN YOUR COUNTRY OF ITS
 BEAUTY, ITS RICHES, OR ITS ROMANCE. -- THEODORE ROOSEVELT
 Job cpu time:       0 days  0 hours  0 minutes 11.0 seconds.
 Elapsed time:       0 days  0 hours  0 minutes  3.0 seconds.
 File lengths (MBytes):  RWF=      6 Int=      0 D2E=      0 Chk=      1 Scr=      1
 Normal termination of Gaussian 16 at Wed Jan 23 22:24:26 2019.
 Initial command:
 /opt/shared/g16/l1.exe "/scratch/19603/Gau-17206.inp" -scrdir="/scratch/19603/"
 Entering Link 1 = /opt/shared/g16/l1.exe PID=     17241.
  
 Copyright (c) 1988-2017, Gaussian, Inc.  All Rights Reserved.
  
 This is part of the Gaussian(R) 16 program.  It is based on
 the Gaussian(R) 09 system (copyright 2009, Gaussian, Inc.),
 the Gaussian(R) 03 system (copyright 2003, Gaussian, Inc.),
 the Gaussian(R) 98 system (copyright 1998, Gaussian, Inc.),
 the Gaussian(R) 94 system (copyright 1995, Gaussian, Inc.),
 the Gaussian 92(TM) system (copyright 1992, Gaussian, Inc.),
 the Gaussian 90(TM) system (copyright 1990, Gaussian, Inc.),
 the Gaussian 88(TM) system (copyright 1988, Gaussian, Inc.),
 the Gaussian 86(TM) system (copyright 1986, Carnegie Mellon
 University), and the Gaussian 82(TM) system (copyright 1983,
 Carnegie Mellon University). Gaussian is a federally registered
 trademark of Gaussian, Inc.
  
 This software contains proprietary and confidential information,
 including trade secrets, belonging to Gaussian, Inc.
  
 This software is provided under written license and may be
 used, copied, transmitted, or stored only in accord with that
 written license.
  
 The following legend is applicable only to US Government
 contracts under FAR:
  
                    RESTRICTED RIGHTS LEGEND
  
 Use, reproduction and disclosure by the US Government is
 subject to restrictions as set forth in subparagraphs (a)
 and (c) of the Commercial Computer Software - Restricted
 Rights clause in FAR 52.227-19.
  
 Gaussian, Inc.
 340 Quinnipiac St., Bldg. 40, Wallingford CT 06492
  
  
 ---------------------------------------------------------------
 Warning -- This program may not be used in any manner that
 competes with the business of Gaussian, Inc. or will provide
 assistance to any competitor of Gaussian, Inc.  The licensee
 of this program is prohibited from giving any competitor of
 Gaussian, Inc. access to this program.  By using this program,
 the user acknowledges that Gaussian, Inc. is engaged in the
 business of creating and licensing software in the field of
 computational chemistry and represents and warrants to the
 licensee that it is not a competitor of Gaussian, Inc. and that
 it will not use this program in any manner prohibited above.
 ---------------------------------------------------------------
  

 Cite this work as:
 Gaussian 16, Revision B.01,
 M. J. Frisch, G. W. Trucks, H. B. Schlegel, G. E. Scuseria, 
 M. A. Robb, J. R. Cheeseman, G. Scalmani, V. Barone, 
 G. A. Petersson, H. Nakatsuji, X. Li, M. Caricato, A. V. Marenich, 
 J. Bloino, B. G. Janesko, R. Gomperts, B. Mennucci, H. P. Hratchian, 
 J. V. Ortiz, A. F. Izmaylov, J. L. Sonnenberg, D. Williams-Young, 
 F. Ding, F. Lipparini, F. Egidi, J. Goings, B. Peng, A. Petrone, 
 T. Henderson, D. Ranasinghe, V. G. Zakrzewski, J. Gao, N. Rega, 
 G. Zheng, W. Liang, M. Hada, M. Ehara, K. Toyota, R. Fukuda, 
 J. Hasegawa, M. Ishida, T. Nakajima, Y. Honda, O. Kitao, H. Nakai, 
 T. Vreven, K. Throssell, J. A. Montgomery, Jr., J. E. Peralta, 
 F. Ogliaro, M. J. Bearpark, J. J. Heyd, E. N. Brothers, K. N. Kudin, 
 V. N. Staroverov, T. A. Keith, R. Kobayashi, J. Normand, 
 K. Raghavachari, A. P. Rendell, J. C. Burant, S. S. Iyengar, 
 J. Tomasi, M. Cossi, J. M. Millam, M. Klene, C. Adamo, R. Cammi, 
 J. W. Ochterski, R. L. Martin, K. Morokuma, O. Farkas, 
 J. B. Foresman, and D. J. Fox, Gaussian, Inc., Wallingford CT, 2016.
 
 ******************************************
 Gaussian 16:  ES64L-G16RevB.01 20-Dec-2017
                23-Jan-2019 
 ******************************************
 %NProcShared=4
 Will use up to    4 processors via shared memory.
 %Mem=2GB
 ---------------------------------------
 #P PBEPBE/6-31+G* pop=NBORead scf=tight
 ---------------------------------------
 1/38=1,172=1/1;
 2/12=2,17=6,18=5,40=1/2;
 3/5=1,6=6,7=11,11=2,25=1,30=1,74=1009/1,2,3;
 4//1;
 5/5=2,32=2,38=5/2;
 6/7=2,8=2,9=2,10=2,28=1,40=2/1,7;
 99/5=1,9=1/99;
 Leave Link    1 at Wed Jan 23 22:24:26 2019, MaxMem=   268435456 cpu:               0.2 elap:               0.1
 (Enter /opt/shared/g16/l101.exe)
 ----------------------------------------------------------
 Single Point computation for reaction coordinate: -3.18142
 ----------------------------------------------------------
 Symbolic Z-matrix:
 Charge = -1 Multiplicity = 1
 6                     0.        0.35637   0.00001 
 1                     0.        0.03239   1.04559 
 1                     0.9055    0.0324   -0.52278 
 1                    -0.9055    0.0324   -0.52278 
 9                     0.       -2.07153  -0.00001 
 9                     0.        1.84096   0.00001 
 
 ITRead=  0  0  0  0  0  0
 MicOpt= -1 -1 -1 -1 -1 -1
 NAtoms=      6 NQM=        6 NQMF=       0 NMMI=      0 NMMIF=      0
                NMic=       0 NMicF=      0.
                    Isotopes and Nuclear Properties:
 (Nuclear quadrupole moments (NQMom) in fm**2, nuclear magnetic moments (NMagM)
  in nuclear magnetons)

  Atom         1           2           3           4           5           6
 IAtWgt=          12           1           1           1          19          19
 AtmWgt=  12.0000000   1.0078250   1.0078250   1.0078250  18.9984032  18.9984032
 NucSpn=           0           1           1           1           1           1
 AtZEff=  -0.0000000  -0.0000000  -0.0000000  -0.0000000  -0.0000000  -0.0000000
 NQMom=    0.0000000   0.0000000   0.0000000   0.0000000   0.0000000   0.0000000
 NMagM=    0.0000000   2.7928460   2.7928460   2.7928460   2.6288670   2.6288670
 AtZNuc=   6.0000000   1.0000000   1.0000000   1.0000000   9.0000000   9.0000000
 Leave Link  101 at Wed Jan 23 22:24:26 2019, MaxMem=   268435456 cpu:               0.3 elap:               0.1
 (Enter /opt/shared/g16/l202.exe)
                          Input orientation:                          
 ---------------------------------------------------------------------
 Center     Atomic      Atomic             Coordinates (Angstroms)
 Number     Number       Type             X           Y           Z
 ---------------------------------------------------------------------
      1          6           0        0.000000    0.356369    0.000008
      2          1           0        0.000000    0.032389    1.045586
      3          1           0        0.905499    0.032397   -0.522781
      4          1           0       -0.905499    0.032397   -0.522781
      5          9           0        0.000000   -2.071530   -0.000013
      6          9           0        0.000000    1.840960    0.000007
 ---------------------------------------------------------------------
                    Distance matrix (angstroms):
                    1          2          3          4          5
     1  C    0.000000
     2  H    1.094622   0.000000
     3  H    1.094621   1.810995   0.000000
     4  H    1.094621   1.810995   1.810998   0.000000
     5  F    2.427899   2.349415   2.349409   2.349409   0.000000
     6  F    1.484591   2.089058   2.089051   2.089051   3.912490
                    6
     6  F    0.000000
 This structure is nearly, but not quite of a higher symmetry.
 Consider Symm=Loose if the higher symmetry is desired.
 Stoichiometry    CH3F2(1-)
 Framework group  CS[SG(CHF2),X(H2)]
 Deg. of freedom     8
 Full point group                 CS      NOp   2
 Largest Abelian subgroup         CS      NOp   2
 Largest concise Abelian subgroup CS      NOp   2
                         Standard orientation:                         
 ---------------------------------------------------------------------
 Center     Atomic      Atomic             Coordinates (Angstroms)
 Number     Number       Type             X           Y           Z
 ---------------------------------------------------------------------
      1          6           0        0.000000    0.350433   -0.000000
      2          1           0       -1.045585    0.026475   -0.000000
      3          1           0        0.522782    0.026450    0.905499
      4          1           0        0.522782    0.026450   -0.905499
      5          9           0       -0.000030   -2.077466    0.000000
      6          9           0        0.000032    1.835024    0.000000
 ---------------------------------------------------------------------
 Rotational constants (GHZ):         152.8963161           3.3896531           3.3896529
 Leave Link  202 at Wed Jan 23 22:24:26 2019, MaxMem=   268435456 cpu:               0.0 elap:               0.0
 (Enter /opt/shared/g16/l301.exe)
 Standard basis: 6-31+G(d) (6D, 7F)
 Ernie: Thresh=  0.10000D-02 Tol=  0.10000D-05 Strict=F.
 There are    46 symmetry adapted cartesian basis functions of A'  symmetry.
 There are    17 symmetry adapted cartesian basis functions of A"  symmetry.
 There are    46 symmetry adapted basis functions of A'  symmetry.
 There are    17 symmetry adapted basis functions of A"  symmetry.
    63 basis functions,   108 primitive gaussians,    63 cartesian basis functions
    14 alpha electrons       14 beta electrons
       nuclear repulsion energy        64.4725077240 Hartrees.
 IExCor= 1009 DFT=T Ex=PBE Corr=PBE ExCW=0 ScaHFX=  0.000000
 ScaDFX=  1.000000  1.000000  1.000000  1.000000 ScalE2=  1.000000  1.000000
 IRadAn=      5 IRanWt=     -1 IRanGd=            0 ICorTp=0 IEmpDi=  4
 NAtoms=    6 NActive=    6 NUniq=    5 SFac= 1.44D+00 NAtFMM=   60 NAOKFM=F Big=F
 Integral buffers will be    131072 words long.
 Raffenetti 2 integral format.
 Two-electron integral symmetry is turned on.
 Leave Link  301 at Wed Jan 23 22:24:26 2019, MaxMem=   268435456 cpu:               0.2 elap:               0.1
 (Enter /opt/shared/g16/l302.exe)
 NPDir=0 NMtPBC=     1 NCelOv=     1 NCel=       1 NClECP=     1 NCelD=      1
         NCelK=      1 NCelE2=     1 NClLst=     1 CellRange=     0.0.
 One-electron integrals computed using PRISM.
 One-electron integral symmetry used in STVInt
 NBasis=    63 RedAO= T EigKep=  3.73D-03  NBF=    46    17
 NBsUse=    63 1.00D-06 EigRej= -1.00D+00 NBFU=    46    17
 Precomputing XC quadrature grid using
 IXCGrd= 4 IRadAn=           5 IRanWt=          -1 IRanGd=           0 AccXCQ= 0.00D+00.
 Generated NRdTot=       0 NPtTot=           0 NUsed=           0 NTot=          32
 NSgBfM=    63    63    63    63    63 MxSgAt=     6 MxSgA2=     6.
 Leave Link  302 at Wed Jan 23 22:24:26 2019, MaxMem=   268435456 cpu:               0.4 elap:               0.1
 (Enter /opt/shared/g16/l303.exe)
 DipDrv:  MaxL=1.
 Leave Link  303 at Wed Jan 23 22:24:26 2019, MaxMem=   268435456 cpu:               0.1 elap:               0.0
 (Enter /opt/shared/g16/l401.exe)
 ExpMin= 4.38D-02 ExpMax= 7.00D+03 ExpMxC= 1.05D+03 IAcc=3 IRadAn=         5 AccDes= 0.00D+00
 Harris functional with IExCor= 1009 and IRadAn=       5 diagonalized for initial guess.
 HarFok:  IExCor= 1009 AccDes= 0.00D+00 IRadAn=         5 IDoV= 1 UseB2=F ITyADJ=14
 ICtDFT=  3500011 ScaDFX=  1.000000  1.000000  1.000000  1.000000
 FoFCou: FMM=F IPFlag=           0 FMFlag=      100000 FMFlg1=           0
         NFxFlg=           0 DoJE=T BraDBF=F KetDBF=T FulRan=T
         wScrn=  0.000000 ICntrl=       500 IOpCl=  0 I1Cent=   200000004 NGrid=           0
         NMat0=    1 NMatS0=      1 NMatT0=    0 NMatD0=    1 NMtDS0=    0 NMtDT0=    0
 Petite list used in FoFCou.
 Harris En= -239.598225466251    
 JPrj=0 DoOrth=F DoCkMO=F.
 Initial guess orbital symmetries:
       Occupied  (A') (A') (A') (A') (A') (A') (A') (A") (A') (A")
                 (A') (A') (A") (A')
       Virtual   (A') (A') (A") (A') (A') (A') (A") (A') (A") (A')
                 (A') (A') (A") (A') (A') (A') (A") (A') (A') (A')
                 (A") (A') (A') (A") (A') (A") (A') (A') (A") (A')
                 (A') (A') (A") (A") (A') (A') (A") (A') (A') (A')
                 (A') (A') (A") (A") (A') (A') (A') (A') (A')
 The electronic state of the initial guess is 1-A'.
 Leave Link  401 at Wed Jan 23 22:24:26 2019, MaxMem=   268435456 cpu:               0.9 elap:               0.2
 (Enter /opt/shared/g16/l502.exe)
 Keep J ints in memory in symmetry-blocked form, NReq=5579420.
 FoFCou: FMM=F IPFlag=           0 FMFlag=           0 FMFlg1=           0
         NFxFlg=           0 DoJE=F BraDBF=F KetDBF=F FulRan=T
         wScrn=  0.000000 ICntrl=       600 IOpCl=  0 I1Cent=           0 NGrid=           0
         NMat0=    1 NMatS0=   2016 NMatT0=    0 NMatD0=    1 NMtDS0=    0 NMtDT0=    0
 Petite list used in FoFCou.
 Closed shell SCF:
 Using DIIS extrapolation, IDIIS=  1040.
 NGot=   268435456 LenX=   267353200 LenY=   267348790
 Requested convergence on RMS density matrix=1.00D-08 within 128 cycles.
 Requested convergence on MAX density matrix=1.00D-06.
 Requested convergence on             energy=1.00D-06.
 No special actions if energy rises.

 Cycle   1  Pass 1  IDiag  1:
 E= -239.237012412764    
 DIIS: error= 6.19D-02 at cycle   1 NSaved=   1.
 NSaved= 1 IEnMin= 1 EnMin= -239.237012412764     IErMin= 1 ErrMin= 6.19D-02
 ErrMax= 6.19D-02  0.00D+00 EMaxC= 1.00D-01 BMatC= 1.52D-01 BMatP= 1.52D-01
 IDIUse=3 WtCom= 3.81D-01 WtEn= 6.19D-01
 Coeff-Com:  0.100D+01
 Coeff-En:   0.100D+01
 Coeff:      0.100D+01
 Gap=    -0.171 Goal=   None    Shift=    0.000
 GapD=   -0.171 DampG=0.250 DampE=0.500 DampFc=0.2500 IDamp=-1.
 Damping current iteration by 2.50D-01
 RMSDP=9.51D-02 MaxDP=2.80D+00              OVMax= 9.88D-01

 Cycle   2  Pass 1  IDiag  1:
 E= -238.760847702005     Delta-E=        0.476164710759 Rises=F Damp=T
 DIIS: error= 4.67D-02 at cycle   2 NSaved=   2.
 NSaved= 2 IEnMin= 1 EnMin= -239.237012412764     IErMin= 2 ErrMin= 4.67D-02
 ErrMax= 4.67D-02  0.00D+00 EMaxC= 1.00D-01 BMatC= 9.36D-02 BMatP= 1.52D-01
 IDIUse=3 WtCom= 5.33D-01 WtEn= 4.67D-01
 Coeff-Com:  0.430D+00 0.570D+00
 Coeff-En:   0.833D+00 0.167D+00
 Coeff:      0.618D+00 0.382D+00
 Gap=     0.017 Goal=   None    Shift=    0.000
 RMSDP=2.41D-02 MaxDP=6.93D-01 DE= 4.76D-01 OVMax= 9.78D-01

 Cycle   3  Pass 1  IDiag  1:
 E= -239.335461031506     Delta-E=       -0.574613329500 Rises=F Damp=F
 DIIS: error= 2.47D-02 at cycle   3 NSaved=   3.
 NSaved= 3 IEnMin= 3 EnMin= -239.335461031506     IErMin= 3 ErrMin= 2.47D-02
 ErrMax= 2.47D-02  0.00D+00 EMaxC= 1.00D-01 BMatC= 4.08D-02 BMatP= 9.36D-02
 IDIUse=3 WtCom= 7.53D-01 WtEn= 2.47D-01
 Coeff-Com:  0.252D+00 0.363D+00 0.385D+00
 Coeff-En:   0.777D-01 0.000D+00 0.922D+00
 Coeff:      0.209D+00 0.273D+00 0.518D+00
 Gap=     0.232 Goal=   None    Shift=    0.000
 RMSDP=3.54D-03 MaxDP=5.46D-02 DE=-5.75D-01 OVMax= 6.51D-02

 Cycle   4  Pass 1  IDiag  1:
 E= -239.354589774227     Delta-E=       -0.019128742721 Rises=F Damp=F
 DIIS: error= 2.93D-02 at cycle   4 NSaved=   4.
 NSaved= 4 IEnMin= 4 EnMin= -239.354589774227     IErMin= 3 ErrMin= 2.47D-02
 ErrMax= 2.93D-02  0.00D+00 EMaxC= 1.00D-01 BMatC= 2.82D-02 BMatP= 4.08D-02
 IDIUse=3 WtCom= 7.07D-01 WtEn= 2.93D-01
 Coeff-Com: -0.543D-01 0.248D+00 0.263D+00 0.544D+00
 Coeff-En:   0.000D+00 0.000D+00 0.272D+00 0.728D+00
 Coeff:     -0.384D-01 0.175D+00 0.265D+00 0.598D+00
 Gap=     0.157 Goal=   None    Shift=    0.000
 RMSDP=1.56D-03 MaxDP=2.01D-02 DE=-1.91D-02 OVMax= 3.52D-02

 Cycle   5  Pass 1  IDiag  1:
[...]
    17. (0.00113) RY*( 3) C   1           s(  0.00%)p 1.00( 20.42%)d 3.90( 79.58%)
                                            0.0000  0.0000  0.0000  0.0000 -0.0000
                                           -0.0000  0.0000 -0.0000 -0.0000  0.0000
                                           -0.0000  0.0094  0.3195  0.3195  0.0000
                                            0.0766  0.8888  0.0000  0.0000
    18. (0.00084) RY*( 4) C   1           s(  0.00%)p 1.00( 98.82%)d 0.01(  1.18%)
                                           -0.0000  0.0000  0.0000  0.0001  0.0000
                                            0.0050 -0.6168  0.7796 -0.0000 -0.0000
                                            0.0001  0.0000  0.0000 -0.0000 -0.0501
                                           -0.0000 -0.0000  0.0480 -0.0834
    19. (0.00084) RY*( 5) C   1           s(  0.00%)p 1.00( 98.82%)d 0.01(  1.18%)
                                            0.0000 -0.0000 -0.0000  0.0000 -0.0000
                                            0.0000  0.0000 -0.0000  0.0000  0.0000
                                           -0.0000  0.0050 -0.6168  0.7796 -0.0000
                                           -0.0962 -0.0502 -0.0000 -0.0000
    20. (0.00084) RY*( 6) C   1           s( 54.53%)p 0.30( 16.16%)d 0.54( 29.31%)
                                            0.0000  0.0055  0.1680  0.7131  0.0925
                                           -0.0000  0.0001 -0.0002 -0.0097  0.1383
                                            0.3773 -0.0000 -0.0000  0.0000 -0.0000
                                            0.0000  0.0000 -0.4688 -0.2707
    21. (0.00008) RY*( 7) C   1           s( 75.59%)p 0.31( 23.59%)d 0.01(  0.83%)
    22. (0.00000) RY*( 8) C   1           s(  0.00%)p 1.00( 79.81%)d 0.25( 20.19%)
    23. (0.00000) RY*( 9) C   1           s(  0.00%)p 1.00( 79.80%)d 0.25( 20.20%)
    24. (0.00000) RY*(10) C   1           s( 40.22%)p 0.11(  4.27%)d 1.38( 55.52%)
    25. (0.00000) RY*(11) C   1           s(  0.00%)p 1.00(  1.01%)d98.27( 98.99%)
    26. (0.00000) RY*(12) C   1           s( 99.71%)p 0.00(  0.16%)d 0.00(  0.14%)
    27. (0.00000) RY*(13) C   1           s( 10.42%)p 7.49( 77.99%)d 1.11( 11.60%)
    28. (0.00000) RY*(14) C   1           s(  2.92%)p 0.79(  2.30%)d32.49( 94.79%)
    29. (0.00134) RY*( 1) H   2           s(100.00%)
                                           -0.0032  1.0000
    30. (0.00134) RY*( 1) H   3           s(100.00%)
                                           -0.0032  1.0000
    31. (0.00134) RY*( 1) H   4           s(100.00%)
                                           -0.0032  1.0000
    32. (0.00250) RY*( 1) F   5           s( 53.61%)p 0.86( 46.07%)d 0.01(  0.32%)
                                            0.0000  0.0035  0.7139  0.1626 -0.0000
                                            0.0000  0.0001 -0.0000 -0.0120 -0.6783
                                            0.0213  0.0000  0.0000  0.0000  0.0000
                                            0.0000  0.0000  0.0492  0.0284
    33. (0.00070) RY*( 2) F   5           s(  0.00%)p 1.00( 81.66%)d 0.22( 18.34%)
                                            0.0000  0.0000  0.0000 -0.0000 -0.0000
                                            0.0015  0.8696  0.2457  0.0000  0.0001
                                            0.0000  0.0000  0.0000  0.0000  0.4229
                                            0.0000  0.0000 -0.0337  0.0583
    34. (0.00070) RY*( 3) F   5           s(  0.00%)p 1.00( 81.66%)d 0.22( 18.34%)
                                            0.0000  0.0000  0.0000  0.0000  0.0000
                                            0.0000  0.0000  0.0000  0.0000  0.0000
                                            0.0000  0.0015  0.8696  0.2457  0.0000
                                            0.0672  0.4229  0.0000  0.0000
    35. (0.00007) RY*( 4) F   5           s( 84.39%)p 0.14( 12.12%)d 0.04(  3.49%)
    36. (0.00000) RY*( 5) F   5           s(  0.00%)p 1.00(100.00%)
    37. (0.00000) RY*( 6) F   5           s( 59.01%)p 0.69( 40.99%)d 0.00(  0.00%)
    38. (0.00000) RY*( 7) F   5           s(  0.24%)p99.99( 99.76%)d 0.00(  0.00%)
    39. (0.00000) RY*( 8) F   5           s(100.00%)p 0.00(  0.00%)d 0.00(  0.00%)
    40. (0.00000) RY*( 9) F   5           s(  0.00%)p 1.00(100.00%)
    41. (0.00000) RY*(10) F   5           s(  0.00%)p 1.00( 18.00%)d 4.56( 82.00%)
    42. (0.00000) RY*(11) F   5           s(  0.00%)p 1.00(  0.55%)d99.99( 99.45%)
    43. (0.00000) RY*(12) F   5           s(  0.00%)p 1.00( 17.82%)d 4.61( 82.18%)
    44. (0.00000) RY*(13) F   5           s(  2.08%)p 0.46(  0.96%)d46.72( 96.96%)
    45. (0.00000) RY*(14) F   5           s(  0.67%)p 0.84(  0.56%)d99.99( 98.77%)
    46. (0.00012) RY*( 1) F   6           s( 40.57%)p 1.28( 51.97%)d 0.18(  7.46%)
                                           -0.0000 -0.0008  0.4630  0.4373  0.0095
                                            0.0000  0.0001  0.0000 -0.0035 -0.6889
                                           -0.2124 -0.0000 -0.0000 -0.0000 -0.0000
                                           -0.0000 -0.0000 -0.2365 -0.1365
    47. (0.00006) RY*( 2) F   6           s(  0.00%)p 1.00( 99.83%)d 0.00(  0.17%)
    48. (0.00006) RY*( 3) F   6           s(  0.00%)p 1.00( 99.83%)d 0.00(  0.17%)
    49. (0.00002) RY*( 4) F   6           s( 47.54%)p 0.96( 45.87%)d 0.14(  6.58%)
    50. (0.00002) RY*( 5) F   6           s(  0.00%)p 1.00( 82.15%)d 0.22( 17.85%)
    51. (0.00002) RY*( 6) F   6           s(  0.00%)p 1.00( 82.15%)d 0.22( 17.85%)
    52. (0.00000) RY*( 7) F   6           s( 12.47%)p 7.01( 87.38%)d 0.01(  0.16%)
    53. (0.00000) RY*( 8) F   6           s( 99.43%)p 0.01(  0.52%)d 0.00(  0.05%)
    54. (0.00000) RY*( 9) F   6           s( 86.46%)p 0.13( 10.99%)d 0.03(  2.55%)
    55. (0.00000) RY*(10) F   6           s(  0.00%)p 1.00( 17.96%)d 4.57( 82.04%)
    56. (0.00000) RY*(11) F   6           s(  0.00%)p 1.00(  0.06%)d99.99( 99.94%)
    57. (0.00000) RY*(12) F   6           s(  0.00%)p 1.00( 17.96%)d 4.57( 82.04%)
    58. (0.00000) RY*(13) F   6           s( 10.93%)p 0.24(  2.64%)d 7.91( 86.43%)
    59. (0.00000) RY*(14) F   6           s(  2.59%)p 0.27(  0.70%)d37.34( 96.71%)
    60. (0.01362) BD*( 1) C   1 - H   2  
                ( 38.45%)   0.6200* C   1 s( 27.99%)p 2.57( 71.94%)d 0.00(  0.06%)
                                           -0.0001 -0.5290 -0.0070 -0.0017  0.0006
                                           -0.8162 -0.0069  0.0025  0.2301 -0.0133
                                            0.0032 -0.0000  0.0000  0.0000  0.0087
                                            0.0000  0.0000 -0.0218  0.0078
                ( 61.55%)  -0.7846* H   2 s(100.00%)
                                           -1.0000 -0.0032
    61. (0.01362) BD*( 1) C   1 - H   3  
                ( 38.45%)   0.6200* C   1 s( 27.99%)p 2.57( 71.94%)d 0.00(  0.06%)
                                           -0.0001 -0.5290 -0.0070 -0.0017  0.0006
                                            0.4081  0.0035 -0.0013  0.2302 -0.0133
                                            0.0032 -0.7069 -0.0060  0.0022 -0.0043
                                            0.0153  0.0075 -0.0086 -0.0151
                ( 61.55%)  -0.7846* H   3 s(100.00%)
                                           -1.0000 -0.0032
    62. (0.01362) BD*( 1) C   1 - H   4  
                ( 38.45%)   0.6200* C   1 s( 27.99%)p 2.57( 71.94%)d 0.00(  0.06%)
                                           -0.0001 -0.5290 -0.0070 -0.0017  0.0006
                                            0.4081  0.0035 -0.0013  0.2302 -0.0133
                                            0.0032  0.7069  0.0060 -0.0022 -0.0043
                                           -0.0153 -0.0075 -0.0086 -0.0151
                ( 61.55%)  -0.7846* H   4 s(100.00%)
                                           -1.0000 -0.0032
    63. (0.06782) BD*( 1) C   1 - F   5  
                ( 74.43%)   0.8627* C   1 s( 16.24%)p 5.14( 83.55%)d 0.01(  0.21%)
                                           -0.0001 -0.4003  0.0460  0.0064 -0.0041
                                            0.0001 -0.0000  0.0000 -0.9119  0.0621
                                           -0.0060 -0.0000 -0.0000  0.0000  0.0000
                                           -0.0000 -0.0000  0.0399  0.0230
                ( 25.57%)  -0.5057* F   5 s( 23.26%)p 3.30( 76.66%)d 0.00(  0.08%)
                                           -0.0000 -0.4820 -0.0084  0.0125  0.0000
                                           -0.0001  0.0000 -0.0000  0.8753 -0.0212
                                            0.0081  0.0000  0.0000  0.0000  0.0000
                                            0.0000  0.0000  0.0243  0.0141


 NHO Directionality and "Bond Bending" (deviations from line of nuclear centers)

         [Thresholds for printing:  angular deviation  >  1.0 degree]
                                    hybrid p-character > 25.0%
                                    orbital occupancy  >  0.10e

                                Line of Centers        Hybrid 1              Hybrid 2
                                ---------------  -------------------   ------------------
                NBO               Theta   Phi    Theta   Phi    Dev    Theta   Phi    Dev
 ========================================================================================
     1. BD (   1) C   1 - H   2    90.0  342.4    90.0  345.0   2.6      --     --    --
     2. BD (   1) C   1 - H   3    34.4  212.4    33.2  208.2   2.6      --     --    --
     3. BD (   1) C   1 - H   4   145.6  212.4   146.8  208.2   2.6      --     --    --
     9. LP (   2) F   5             --     --      0.0    0.0   --       --     --    --
    10. LP (   3) F   5             --     --     90.0    0.0   --       --     --    --
    12. LP (   2) F   6             --     --     90.0    0.0   --       --     --    --
    13. LP (   3) F   6             --     --      0.0    0.0   --       --     --    --
    14. LP (   4) F   6             --     --     90.0   90.0   --       --     --    --


 Second Order Perturbation Theory Analysis of Fock Matrix in NBO Basis

     Threshold for printing:   0.50 kcal/mol
    (Intermolecular threshold: 0.05 kcal/mol)
                                                                              E(2)  E(j)-E(i) F(i,j)
         Donor NBO (i)                     Acceptor NBO (j)                 kcal/mol   a.u.    a.u. 
 ===================================================================================================

 within unit  1
   1. BD (   1) C   1 - H   2        / 63. BD*(   1) C   1 - F   5            1.97    0.57    0.030
   2. BD (   1) C   1 - H   3        / 63. BD*(   1) C   1 - F   5            1.97    0.57    0.030
   3. BD (   1) C   1 - H   4        / 63. BD*(   1) C   1 - F   5            1.97    0.57    0.030
   5. CR (   1) C   1                / 63. BD*(   1) C   1 - F   5            3.30    9.96    0.164
   6. CR (   1) F   5                / 15. RY*(   1) C   1                    1.28   24.71    0.159
   8. LP (   1) F   5                / 15. RY*(   1) C   1                    3.51    1.65    0.068
   8. LP (   1) F   5                / 20. RY*(   6) C   1                    0.71    2.16    0.035
   9. LP (   2) F   5                / 17. RY*(   3) C   1                    0.83    1.87    0.035
   9. LP (   2) F   5                / 61. BD*(   1) C   1 - H   3            2.91    0.71    0.041
   9. LP (   2) F   5                / 62. BD*(   1) C   1 - H   4            2.91    0.71    0.041
  10. LP (   3) F   5                / 16. RY*(   2) C   1                    0.83    1.87    0.035
  10. LP (   3) F   5                / 60. BD*(   1) C   1 - H   2            3.89    0.71    0.047
  10. LP (   3) F   5                / 61. BD*(   1) C   1 - H   3            0.97    0.71    0.023
  10. LP (   3) F   5                / 62. BD*(   1) C   1 - H   4            0.97    0.71    0.023

 from unit  1 to unit  2
       None above threshold

 from unit  2 to unit  1
   7. CR (   1) F   6                / 63. BD*(   1) C   1 - F   5            0.11   24.09    0.047
  11. LP (   1) F   6                / 15. RY*(   1) C   1                    0.15    1.53    0.013
  11. LP (   1) F   6                / 21. RY*(   7) C   1                    0.05    1.76    0.009
  11. LP (   1) F   6                / 63. BD*(   1) C   1 - F   5            0.98    0.96    0.028
  12. LP (   2) F   6                / 18. RY*(   4) C   1                    0.14    0.35    0.006
  12. LP (   2) F   6                / 60. BD*(   1) C   1 - H   2            0.27    0.53    0.011
  12. LP (   2) F   6                / 61. BD*(   1) C   1 - H   3            0.07    0.53    0.005
  12. LP (   2) F   6                / 62. BD*(   1) C   1 - H   4            0.07    0.53    0.005
  13. LP (   3) F   6                / 19. RY*(   5) C   1                    0.14    0.35    0.006
  13. LP (   3) F   6                / 61. BD*(   1) C   1 - H   3            0.20    0.53    0.009
  13. LP (   3) F   6                / 62. BD*(   1) C   1 - H   4            0.20    0.53    0.009
  14. LP (   4) F   6                / 15. RY*(   1) C   1                    0.44    0.85    0.018
  14. LP (   4) F   6                / 20. RY*(   6) C   1                    0.05    1.36    0.008
  14. LP (   4) F   6                / 21. RY*(   7) C   1                    0.13    1.08    0.011
  14. LP (   4) F   6                / 63. BD*(   1) C   1 - F   5            6.40    0.28    0.038

 within unit  2
       None above threshold


 Natural Bond Orbitals (Summary):

                                                            Principal Delocalizations
           NBO                        Occupancy    Energy   (geminal,vicinal,remote)
 ====================================================================================
 Molecular unit  1  (CH3F)
     1. BD (   1) C   1 - H   2          1.99589    -0.28800  63(g)
     2. BD (   1) C   1 - H   3          1.99589    -0.28799  63(g)
     3. BD (   1) C   1 - H   4          1.99589    -0.28799  63(g)
     4. BD (   1) C   1 - F   5          1.99765    -0.58651   
     5. CR (   1) C   1                  1.99944    -9.67897  63(g)
     6. CR (   1) F   5                  1.99997   -23.86759  15(v)
     8. LP (   1) F   5                  1.99468    -0.80410  15(v),20(v)
     9. LP (   2) F   5                  1.98231    -0.15239  61(v),62(v),17(v)
    10. LP (   3) F   5                  1.98231    -0.15239  60(v),61(v),62(v),16(v)
    15. RY*(   1) C   1                  0.00998     0.84441   
    16. RY*(   2) C   1                  0.00113     1.71938   
    17. RY*(   3) C   1                  0.00113     1.71936   
    18. RY*(   4) C   1                  0.00084     0.37795   
    19. RY*(   5) C   1                  0.00084     0.37797   
    20. RY*(   6) C   1                  0.00084     1.35563   
    21. RY*(   7) C   1                  0.00008     1.07322   
    22. RY*(   8) C   1                  0.00000     1.04838   
    23. RY*(   9) C   1                  0.00000     1.04805   
    24. RY*(  10) C   1                  0.00000     1.70807   
    25. RY*(  11) C   1                  0.00000     2.09751   
    26. RY*(  12) C   1                  0.00000     4.16505   
    27. RY*(  13) C   1                  0.00000     0.86350   
    28. RY*(  14) C   1                  0.00000     2.07853   
    29. RY*(   1) H   2                  0.00134     0.79706   
    30. RY*(   1) H   3                  0.00134     0.79706   
    31. RY*(   1) H   4                  0.00134     0.79706   
    32. RY*(   1) F   5                  0.00250     1.19690   
    33. RY*(   2) F   5                  0.00070     1.01392   
    34. RY*(   3) F   5                  0.00070     1.01392   
    35. RY*(   4) F   5                  0.00007     0.89452   
    36. RY*(   5) F   5                  0.00000     1.24559   
    37. RY*(   6) F   5                  0.00000     1.62534   
    38. RY*(   7) F   5                  0.00000     1.69532   
    39. RY*(   8) F   5                  0.00000     4.56462   
    40. RY*(   9) F   5                  0.00000     1.24559   
    41. RY*(  10) F   5                  0.00000     1.87678   
    42. RY*(  11) F   5                  0.00000     1.95436   
    43. RY*(  12) F   5                  0.00000     1.87913   
    44. RY*(  13) F   5                  0.00000     2.33660   
    45. RY*(  14) F   5                  0.00000     2.07925   
    60. BD*(   1) C   1 - H   2          0.01362     0.55543   
    61. BD*(   1) C   1 - H   3          0.01362     0.55543   
    62. BD*(   1) C   1 - H   4          0.01362     0.55543   
    63. BD*(   1) C   1 - F   5          0.06782     0.27722   
       -------------------------------
              Total Lewis   17.94404  ( 99.2725%)
        Valence non-Lewis    0.10868  (  0.6012%)
        Rydberg non-Lewis    0.02283  (  0.1263%)
       -------------------------------
            Total unit  1   18.07555  (100.0000%)
           Charge unit  1   -0.07555
 
 Molecular unit  2  (F)
     7. CR (   1) F   6                  2.00000   -23.81432  63(r)
    11. LP (   1) F   6                  1.99959    -0.68557  63(r),15(r),21(r)
    12. LP (   2) F   6                  1.99690     0.02712  60(r),18(r),61(r),62(r)
    13. LP (   3) F   6                  1.99690     0.02712  61(r),62(r),19(r)
    14. LP (   4) F   6                  1.93076    -0.00417  63(r),15(r),21(r),20(r)
    46. RY*(   1) F   6                  0.00012     1.28877   
    47. RY*(   2) F   6                  0.00006     0.47746   
    48. RY*(   3) F   6                  0.00006     0.47746   
    49. RY*(   4) F   6                  0.00002     1.41352   
    50. RY*(   5) F   6                  0.00002     1.83339   
    51. RY*(   6) F   6                  0.00002     1.83339   
    52. RY*(   7) F   6                  0.00000     1.81256   
    53. RY*(   8) F   6                  0.00000     4.32087   
    54. RY*(   9) F   6                  0.00000     1.02662   
    55. RY*(  10) F   6                  0.00000     2.06007   
    56. RY*(  11) F   6                  0.00000     2.13630   
    57. RY*(  12) F   6                  0.00000     2.06007   
    58. RY*(  13) F   6                  0.00000     2.24517   
    59. RY*(  14) F   6                  0.00000     2.16259   
       -------------------------------
              Total Lewis    9.92415  ( 99.9970%)
        Valence non-Lewis    0.00000  (  0.0000%)
        Rydberg non-Lewis    0.00030  (  0.0030%)
       -------------------------------
            Total unit  2    9.92445  (100.0000%)
           Charge unit  2   -0.92445
 Leave Link  607 at Wed Jan 23 22:25:26 2019, MaxMem=   268435456 cpu:               1.1 elap:               0.3
 (Enter /opt/shared/g16/l9999.exe)
 1\1\GINC-N004\SP\RPBEPBE\6-31+G(d)\C1H3F2(1-)\SVOGT\23-Jan-2019\0\\#P 
 PBEPBE/6-31+G* pop=NBORead scf=tight\\Single Point computation for rea
 ction coordinate: 3.53558\\-1,1\C,0,0.,-0.379984,0.000025\H,0,0.,-0.04
 9362,1.043345\H,0,0.903544,-0.049363,-0.521637\H,0,-0.903544,-0.049363
 ,-0.521637\F,0,0.,-1.858398,0.000013\F,0,0.,2.10539,-0.000033\\Version
 =ES64L-G16RevB.01\State=1-A'\HF=-239.3789894\RMSD=6.884e-09\Dipole=0.,
 -2.3167007,0.0000569\Quadrupole=6.7897654,-13.5795222,6.7897568,0.,0.,
 0.0002687\PG=CS [SG(C1H1F2),X(H2)]\\@


 I WANT TO KNOW HOW GOD CREATED THE WORLD.  I AM NOT INTERESTED IN
 THIS OR THAT PHENOMENON, IN THE SPECTRUM OF THIS OR THAT ELEMENT.
 I WANT TO KNOW HIS THOUGHTS, THE REST ARE DETAILS.
     -- ALBERT EINSTEIN
 Job cpu time:       0 days  0 hours  0 minutes 11.0 seconds.
 Elapsed time:       0 days  0 hours  0 minutes  2.9 seconds.
 File lengths (MBytes):  RWF=      6 Int=      0 D2E=      0 Chk=      1 Scr=      1
 Normal termination of Gaussian 16 at Wed Jan 23 22:25:26 2019.
